                  Welcome to Q-Chem
     A Quantum Leap Into The Future Of Chemistry


 Q-Chem 5.2 (devel), Q-Chem, Inc., Pleasanton, CA (2019)

 Yihan Shao,  Zhengting Gan,  E. Epifanovsky,  A. T. B. Gilbert,  M. Wormit,
 J. Kussmann,  A. W. Lange,  A. Behn,  Jia Deng,  Xintian Feng,  D. Ghosh,
 M. Goldey,  P. R. Horn,  L. D. Jacobson,  I. Kaliman,  T. Kus,  A. Landau,
 Jie Liu,  E. I. Proynov,  R. M. Richard,  R. P. Steele,  E. J. Sundstrom,
 H. L. Woodcock III,  P. M. Zimmerman,  D. Zuev,  B. Albrecht,  E. Alguire,
 S. A. Baeppler,  D. Barton,  Z. Benda,  Y. A. Bernard,  E. J. Berquist,
 K. B. Bravaya,  H. Burton,  D. Casanova,  Chun-Min Chang,  Yunqing Chen,
 A. Chien,  K. D. Closser,  M. P. Coons,  S. Coriani,  S. Dasgupta,
 A. L. Dempwolff,  M. Diedenhofen,  Hainam Do,  R. G. Edgar,  Po-Tung Fang,
 S. Faraji,  S. Fatehi,  Qingguo Feng,  K. D. Fenk,  J. Fosso-Tande,
 J. Gayvert,  Qinghui Ge,  A. Ghysels,  G. Gidofalvi,  J. Gomes,
 J. Gonthier,  A. Gunina,  D. Hait,  M. W. D. Hanson-Heine,
 P. H. P. Harbach,  A. W. Hauser,  J. E. Herr,  E. G. Hohenstein,
 Z. C. Holden,  Kerwin Hui,  B. C. Huynh,  T.-C. Jagau,  Hyunjun Ji,
 B. Kaduk,  K. Khistyaev,  Jaehoon Kim,  P. Klunzinger,  K. Koh,
 D. Kosenkov,  L. Koulias,  T. Kowalczyk,  C. M. Krauter,  A. Kunitsa,
 Ka Un Lao,  A. Laurent,  K. V. Lawler,  Joonho Lee,  D. Lefrancois,
 S. Lehtola,  D. S. Levine,  Yi-Pei Li,  You-Sheng Lin,  Fenglai Liu,
 E. Livshits,  A. Luenser,  P. Manohar,  E. Mansoor,  S. F. Manzer,
 Shan-Ping Mao,  Yuezhi Mao,  N. Mardirossian,  A. V. Marenich,
 T. Markovich,  L. A. Martinez-Martinez,  S. A. Maurer,  N. J. Mayhall,
 S. C. McKenzie,  J.-M. Mewes,  A. F. Morrison,  J. W. Mullinax,  K. Nanda,
 T. S. Nguyen-Beck,  R. Olivares-Amaya,  J. A. Parkhill,  T. M. Perrine,
 F. Plasser,  P. Pokhilko,  S. Prager,  A. Prociuk,  E. Ramos,  D. R. Rehn,
 F. Rob,  M. Schneider,  N. Sergueev,  S. M. Sharada,  S. Sharma,
 D. W. Small,  T. Stauch,  T. Stein,  Yu-Chuan Su,  A. J. W. Thom,
 A. Tkatchenko,  T. Tsuchimochi,  N. M. Tubman,  L. Vogt,  M. L. Vidal,
 O. Vydrov,  M. A. Watson,  J. Wenzel,  M. de Wergifosse,  T. A. Wesolowski,
 A. White,  J. Witte,  A. Yamada,  Jun Yang,  K. Yao,  S. Yeganeh,
 S. R. Yost,  Zhi-Qiang You,  A. Zech,  Igor Ying Zhang,  Xing Zhang,
 Yan Zhao,  Ying Zhu,  B. R. Brooks,  G. K. L. Chan,  C. J. Cramer,
 M. S. Gordon,  W. J. Hehre,  A. Klamt,  M. W. Schmidt,  C. D. Sherrill,
 D. G. Truhlar,  A. Aspuru-Guzik,  R. Baer,  A. T. Bell,  N. A. Besley,
 Jeng-Da Chai,  A. E. DePrince, III,  R. A. DiStasio Jr.,  A. Dreuw,
 B. D. Dunietz,  T. R. Furlani,  Chao-Ping Hsu,  Yousung Jung,  Jing Kong,
 D. S. Lambrecht,  WanZhen Liang,  C. Ochsenfeld,  V. A. Rassolov,
 L. V. Slipchenko,  J. E. Subotnik,  T. Van Voorhis,  J. M. Herbert,
 A. I. Krylov,  P. M. W. Gill,  M. Head-Gordon

 Contributors to earlier versions of Q-Chem not listed above:
 R. D. Adamson,  B. Austin,  J. Baker,  G. J. O. Beran,  K. Brandhorst,
 S. T. Brown,  E. F. C. Byrd,  A. K. Chakraborty,  C.-L. Cheng,
 Siu Hung Chien,  D. M. Chipman,  D. L. Crittenden,  H. Dachsel,
 R. J. Doerksen,  A. D. Dutoi,  L. Fusti-Molnar,  W. A. Goddard III,
 A. Golubeva-Zadorozhnaya,  S. R. Gwaltney,  G. Hawkins,  A. Heyden,
 S. Hirata,  G. Kedziora,  F. J. Keil,  C. Kelley,  Jihan Kim,  R. A. King,
 R. Z. Khaliullin,  P. P. Korambath,  W. Kurlancheek,  A. M. Lee,  M. S. Lee,
 S. V. Levchenko,  Ching Yeh Lin,  D. Liotard,  R. C. Lochan,  I. Lotan,
 P. E. Maslen,  N. Nair,  D. P. O'Neill,  D. Neuhauser,  E. Neuscamman,
 C. M. Oana,  R. Olson,  B. Peters,  R. Peverati,  P. A. Pieniazek,
 Y. M. Rhee,  J. Ritchie,  M. A. Rohrdanz,  E. Rosta,  N. J. Russ,
 H. F. Schaefer III,  N. E. Schultz,  N. Shenvi,  A. C. Simmonett,  A. Sodt,
 D. Stuck,  K. S. Thanthiriwatte,  V. Vanovschi,  Tao Wang,  A. Warshel,
 C. F. Williams,  Q. Wu,  X. Xu,  W. Zhang

 Please cite Q-Chem as follows:
 Y. Shao et al., Mol. Phys. 113, 184-215 (2015)
 DOI: 10.1080/00268976.2014.952696

 Q-Chem 5.2.0 for Mac (Intel) OS X

 Parts of Q-Chem use Armadillo 8.300.2 (Tropical Shenanigans).
 http://arma.sourceforge.net/

 Q-Chem begins on Mon Mar 29 19:08:31 2021

Host:
0

     Scratch files written to /Users/abel/Scratch/export/pyqchem_37810//
Input Ideriv = 2
Curr. Ideriv = -1
Max.  Ideriv = 2

Checking the input file for inconsistencies... 	...done.

--------------------------------------------------------------
User input:
--------------------------------------------------------------
$molecule
0 1
C	        0.6265706736        -0.1366920136         0.0000000000
H	        0.3713313423         1.0382388123         0.0000000000
N	       -0.5902108996        -0.0315499562         0.0000000000
$end
$rem
jobtype rpath
exchange hf
basis sto-3g
thresh 14
scf_convergence 8
scf_algorithm diis
max_scf_cycles 50
gui 2
set_iter 30
RPA False
mem_total 2000
mem_static 64
n_frozen_virtual 0
mom_start False
skip_scfman False
scf_guess_mix False
scf_guess read
symmetry True
sym_ignore False
sym_tol 5
rpath_coords 0
rpath_direction 1
rpath_max_cycles 30
rpath_max_stepsize 150
rpath_tol_displacement 5000
$end

--------------------------------------------------------------
 ----------------------------------------------------------------
             Standard Nuclear Orientation (Angstroms)
    I     Atom           X                Y                Z
 ----------------------------------------------------------------
    1      C       0.6265491640    -0.1368293747     0.0000000000
    2      H       0.3719375049     1.0382376298    -0.0000000000
    3      N      -0.5901760698    -0.0310373402     0.0000000000
 ----------------------------------------------------------------
 Molecular Point Group                 Cs    NOp =  2
 Largest Abelian Subgroup              Cs    NOp =  2
 Nuclear Repulsion Energy =    23.4139369529 hartrees
 There are        7 alpha and        7 beta electrons
 Requested basis set is STO-3G
 There are 5 shells and 11 basis functions

 Total QAlloc Memory Limit   2000 MB
 Mega-Array Size        63 MB
 MEM_STATIC part        64 MB
 Starting direction for rxn path = 1

                       Distance Matrix (Angstroms)
             C (  1)   H (  2)
   H (  2)  1.202335
   N (  3)  1.221316  1.438406

 A cutoff of  1.0D-14 yielded     15 shell pairs
 There are        78 function pairs

 -------------------------------------------------------
 OpenMP Integral Computing Module
 Release: version 1.0, May 2013, Q-Chem Inc. Pittsburgh
 -------------------------------------------------------
 Integral Job Info:
 Integral job number is                      11
 Integral operator is                         1
 short-range coefficients                     0
 long-range coefficients              100000000
 Omega coefficients                           0
 if combine SR and LR in K                    0
 Integral screening is                        0
 Integral computing path is                   2
 max size of driver memory is            800000
 size of driver memory is                 45569
 size of scratch memory is              1046100
 max col of scratch BK array                289
 max len of scratch array in speh3           22
 max len of scratch index in speh4            8
 max int batch size is                      520
 min int batch size is                       52
 fixed nKL is                                52
 max L of basis functions is                  1
 order of int derivative is                   0
 number of shells is                          5
 number of basis is                          11
 number of cartesian basis is                11
 number of contracted shell pairs            15
 number of primitive shell pairs            131
 maxK2 (contraction) of shell pair            9
 max number of K2 of shell pair               1
 max number of CS2 of shell pair              6
 max number of PS2 of shell pair             54
 mem total for path MDJ                  505874
 -------------------------------------------------------
 Smallest overlap matrix eigenvalue = 1.87E-01

 Scale SEOQF with 1.000000e+00/1.000000e+00/1.000000e+00

 Standard Electronic Orientation quadrupole field applied
 Nucleus-field energy     =     0.0000000026 hartrees
 Guess MOs from SCF MO coefficient file

 -----------------------------------------------------------------------
  General SCF calculation program by
  Eric Jon Sundstrom, Paul Horn, Yuezhi Mao, Dmitri Zuev, Alec White,
  David Stuck, Shaama M.S., Shane Yost, Joonho Lee, David Small,
  Daniel Levine, Susi Lehtola, Hugh Burton, Evgeny Epifanovsky
 -----------------------------------------------------------------------
 Hartree-Fock
 using 4 threads for integral computing
 -------------------------------------------------------
 OpenMP Integral computing Module
 Release: version 1.0, May 2013, Q-Chem Inc. Pittsburgh
 -------------------------------------------------------
 A restricted SCF calculation will be
 performed using DIIS
 SCF converges when DIIS error is below 1.0e-08
 ---------------------------------------
  Cycle       Energy         DIIS error
 ---------------------------------------
    1     -91.5648506693      7.45e-05
    2     -91.5648508473      2.48e-05
    3     -91.5648508790      1.09e-05
    4     -91.5648508834      6.17e-06
    5     -91.5648508867      1.18e-06
    6     -91.5648508869      3.68e-07
    7     -91.5648508869      1.11e-07
    8     -91.5648508869      2.73e-08
    9     -91.5648508869      4.92e-09  Convergence criterion met
 ---------------------------------------
 SCF time:   CPU 3.08s  wall 1.00s
 SCF   energy in the final basis set =      -91.5648508869
 Total energy in the final basis set =      -91.5648508869

 --------------------------------------------------------------
             Orbital Energies (a.u.) and Symmetries
 --------------------------------------------------------------

 Alpha MOs, Restricted
 -- Occupied --
-15.421 -11.050  -1.235  -0.643  -0.543  -0.454  -0.396
  1 A'    2 A'    3 A'    4 A'    5 A'    1 A"    6 A'
 -- Virtual --
  0.244   0.311   0.497   1.017
  7 A'    2 A"    8 A'    9 A'

 Beta MOs, Restricted
 -- Occupied --
-15.421 -11.050  -1.235  -0.643  -0.543  -0.454  -0.396
  1 A'    2 A'    3 A'    4 A'    5 A'    1 A"    6 A'
 -- Virtual --
  0.244   0.311   0.497   1.017
  7 A'    2 A"    8 A'    9 A'
 --------------------------------------------------------------

          Ground-State Mulliken Net Atomic Charges

     Atom                 Charge (a.u.)
  ----------------------------------------
      1 C                    -0.021216
      2 H                     0.167603
      3 N                    -0.146387
  ----------------------------------------
  Sum of atomic charges =    -0.000000

 -----------------------------------------------------------------
                    Cartesian Multipole Moments
 -----------------------------------------------------------------
    Charge (ESU x 10^10)
                -0.0000
    Dipole Moment (Debye)
         X       0.0709      Y       1.1991      Z      -0.0000
       Tot       1.2012
    Quadrupole Moments (Debye-Ang)
        XX     -13.6179     XY       0.8938     YY      -8.9552
        XZ      -0.0000     YZ      -0.0000     ZZ     -10.5098
    Octopole Moments (Debye-Ang^2)
       XXX      -2.7768    XXY       0.5213    XYY      -0.6825
       YYY       1.4772    XXZ      -0.0000    XYZ      -0.0000
       YYZ      -0.0000    XZZ      -0.3507    YZZ       0.0897
       ZZZ      -0.0000
    Hexadecapole Moments (Debye-Ang^3)
      XXXX     -36.4925   XXXY       1.0517   XXYY      -7.3090
      XYYY       0.9146   YYYY     -10.6475   XXXZ       0.0000
      XXYZ       0.0000   XYYZ      -0.0000   YYYZ       0.0000
      XXZZ      -6.6377   XYZZ       0.1104   YYZZ      -3.3045
      XZZZ       0.0000   YZZZ       0.0000   ZZZZ      -7.5098
 -----------------------------------------------------------------
 Calculating analytic gradient of the SCF energy
 Gradient of SCF Energy
            1           2           3
    1  -0.0000099  -0.0000450   0.0000549
    2  -0.0003059   0.0003379  -0.0000320
    3  -0.0000000  -0.0000000   0.0000000
 Max gradient component =       3.379E-04
 RMS gradient           =       1.542E-04
 Gradient time:  CPU 0.82 s  wall 0.21 s
rPathMan2.  file_steps = 951
 ------------------------------------------------------------------------
 Reaction path following.  The coordinates are mass-weighted cartesian
 Step   1 E=     -91.564851 |G|=  0.000462 S_lin= 0.0000 S_tot= 0.0000
 ------------------------------------------------------------------------
 IRC -- neg. force constant =  -0.159177876472406
 IRC -- max trans/rot const =   2.761680248169210E-004
 In first_irc_step: ISign =            1
 ----------------------------------------------------------------
             Standard Nuclear Orientation (Angstroms)
    I     Atom           X                Y                Z
 ----------------------------------------------------------------
    1      C       0.6048506616    -0.1016861296     0.0000000000
    2      H       0.4173168684     1.0467157537    -0.0000000000
    3      N      -0.6138569256    -0.0746586754     0.0000000000
 ----------------------------------------------------------------
 Molecular Point Group                 Cs    NOp =  2
 Largest Abelian Subgroup              Cs    NOp =  2
 Nuclear Repulsion Energy =    23.3925704167 hartrees
 There are        7 alpha and        7 beta electrons

                       Distance Matrix (Angstroms)
             C (  1)   H (  2)
   H (  2)  1.163613
   N (  3)  1.219007  1.523417

 Applying Cartesian multipole field
    Component          Value
    ---------          -----
     (2,0,0)        1.00000E-10
     (0,2,0)        2.00000E-10
     (0,0,2)       -3.00000E-10
 Nucleus-field energy     =     0.0000000026 hartrees
 Requested basis set is STO-3G
 There are 5 shells and 11 basis functions
 A cutoff of  1.0D-14 yielded     15 shell pairs
 There are        78 function pairs
 Smallest overlap matrix eigenvalue = 1.82E-01
 Guess MOs from SCF MO coefficient file

 -----------------------------------------------------------------------
  General SCF calculation program by
  Eric Jon Sundstrom, Paul Horn, Yuezhi Mao, Dmitri Zuev, Alec White,
  David Stuck, Shaama M.S., Shane Yost, Joonho Lee, David Small,
  Daniel Levine, Susi Lehtola, Hugh Burton, Evgeny Epifanovsky
 -----------------------------------------------------------------------
 Hartree-Fock
 using 4 threads for integral computing
 -------------------------------------------------------
 OpenMP Integral computing Module
 Release: version 1.0, May 2013, Q-Chem Inc. Pittsburgh
 -------------------------------------------------------
 A restricted SCF calculation will be
 performed using DIIS
 SCF converges when DIIS error is below 1.0e-08
 ---------------------------------------
  Cycle       Energy         DIIS error
 ---------------------------------------
    1     -91.5599733816      1.17e-02
    2     -91.5650192605      4.72e-03
    3     -91.5661840321      3.24e-03
    4     -91.5665105414      1.24e-03
    5     -91.5666684840      2.99e-04
    6     -91.5666771291      9.50e-05
    7     -91.5666779909      2.97e-05
    8     -91.5666780924      7.03e-06
    9     -91.5666780975      6.51e-07
   10     -91.5666780975      1.56e-07
   11     -91.5666780975      2.79e-08
   12     -91.5666780975      1.49e-09  Convergence criterion met
 ---------------------------------------
 SCF time:   CPU 4.03s  wall 1.00s
 SCF   energy in the final basis set =      -91.5666780975
 Total energy in the final basis set =      -91.5666780975

 --------------------------------------------------------------
             Orbital Energies (a.u.) and Symmetries
 --------------------------------------------------------------

 Alpha MOs, Restricted
 -- Occupied --
-15.421 -11.047  -1.225  -0.660  -0.532  -0.452  -0.395
  1 A'    2 A'    3 A'    4 A'    5 A'    1 A"    6 A'
 -- Virtual --
  0.220   0.313   0.549   1.033
  7 A'    2 A"    8 A'    9 A'

 Beta MOs, Restricted
 -- Occupied --
-15.421 -11.047  -1.225  -0.660  -0.532  -0.452  -0.395
  1 A'    2 A'    3 A'    4 A'    5 A'    1 A"    6 A'
 -- Virtual --
  0.220   0.313   0.549   1.033
  7 A'    2 A"    8 A'    9 A'
 --------------------------------------------------------------

          Ground-State Mulliken Net Atomic Charges

     Atom                 Charge (a.u.)
  ----------------------------------------
      1 C                    -0.039343
      2 H                     0.162695
      3 N                    -0.123352
  ----------------------------------------
  Sum of atomic charges =     0.000000

 -----------------------------------------------------------------
                    Cartesian Multipole Moments
 -----------------------------------------------------------------
    Charge (ESU x 10^10)
                 0.0000
    Dipole Moment (Debye)
         X       0.1002      Y       1.2253      Z      -0.0000
       Tot       1.2294
    Quadrupole Moments (Debye-Ang)
        XX     -13.4578     XY       0.6954     YY      -8.9477
        XZ      -0.0000     YZ      -0.0000     ZZ     -10.4924
    Octopole Moments (Debye-Ang^2)
       XXX      -1.7822    XXY       0.5964    XYY      -0.5249
       YYY       1.5876    XXZ      -0.0000    XYZ       0.0000
       YYZ      -0.0000    XZZ      -0.1531    YZZ       0.1377
       ZZZ      -0.0000
    Hexadecapole Moments (Debye-Ang^3)
      XXXX     -36.3240   XXXY      -0.2533   XXYY      -7.2488
      XYYY       0.0629   YYYY     -10.5398   XXXZ       0.0000
      XXYZ       0.0000   XYYZ      -0.0000   YYYZ       0.0000
      XXZZ      -6.6414   XYZZ      -0.2126   YYZZ      -3.3046
      XZZZ       0.0000   YZZZ       0.0000   ZZZZ      -7.4965
 -----------------------------------------------------------------
 Calculating analytic gradient of the SCF energy
 Gradient of SCF Energy
            1           2           3
    1   0.0151898  -0.0139095  -0.0012802
    2  -0.0095124  -0.0042820   0.0137944
    3  -0.0000000   0.0000000   0.0000000
 Max gradient component =       1.519E-02
 RMS gradient           =       8.975E-03
 Gradient time:  CPU 0.77 s  wall 0.19 s
rPathMan2.  file_steps = 951
 IRC --- Status = 2.  Assess steepest descent step
 IRC --- Previous SD length =   0.093206
 IRC --- Point 1 E =      -91.564851 |G| =   0.000351 G.D1 =  -0.000001
 IRC --- Point 2 E =      -91.566678 |G| =   0.015832 G.D1 =  -0.015377
 IRC --- Angle(G1/G2) =   13.76 Deg.  Curvature =  -0.1650
 IRC --- Corrector step required
 IRC --- equal length displacement: B_eq =   0.022324
 IRC --- chosen bisector length  : B_len =   0.011162
 ----------------------------------------------------------------
             Standard Nuclear Orientation (Angstroms)
    I     Atom           X                Y                Z
 ----------------------------------------------------------------
    1      C       0.6037829790    -0.1019156213     0.0000000000
    2      H       0.4163023152     1.0491279351    -0.0000000000
    3      N      -0.6128689504    -0.0746356223     0.0000000000
 ----------------------------------------------------------------
 Molecular Point Group                 Cs    NOp =  2
 Largest Abelian Subgroup              Cs    NOp =  2
 Nuclear Repulsion Energy =    23.4165477018 hartrees
 There are        7 alpha and        7 beta electrons

                       Distance Matrix (Angstroms)
             C (  1)   H (  2)
   H (  2)  1.166212
   N (  3)  1.216958  1.523823

 Applying Cartesian multipole field
    Component          Value
    ---------          -----
     (2,0,0)        1.00000E-10
     (0,2,0)        2.00000E-10
     (0,0,2)       -3.00000E-10
 Nucleus-field energy     =     0.0000000026 hartrees
 Requested basis set is STO-3G
 There are 5 shells and 11 basis functions
 A cutoff of  1.0D-14 yielded     15 shell pairs
 There are        78 function pairs
 Smallest overlap matrix eigenvalue = 1.81E-01
 Guess MOs from SCF MO coefficient file

 -----------------------------------------------------------------------
  General SCF calculation program by
  Eric Jon Sundstrom, Paul Horn, Yuezhi Mao, Dmitri Zuev, Alec White,
  David Stuck, Shaama M.S., Shane Yost, Joonho Lee, David Small,
  Daniel Levine, Susi Lehtola, Hugh Burton, Evgeny Epifanovsky
 -----------------------------------------------------------------------
 Hartree-Fock
 using 4 threads for integral computing
 -------------------------------------------------------
 OpenMP Integral computing Module
 Release: version 1.0, May 2013, Q-Chem Inc. Pittsburgh
 -------------------------------------------------------
 A restricted SCF calculation will be
 performed using DIIS
 SCF converges when DIIS error is below 1.0e-08
 ---------------------------------------
  Cycle       Energy         DIIS error
 ---------------------------------------
    1     -91.5666841480      2.70e-04
    2     -91.5666859536      1.14e-04
    3     -91.5666863317      7.59e-05
    4     -91.5666865261      2.84e-05
    5     -91.5666866105      8.85e-06
    6     -91.5666866196      2.11e-06
    7     -91.5666866200      6.71e-07
    8     -91.5666866200      1.76e-07
    9     -91.5666866200      2.86e-08
   10     -91.5666866200      2.17e-09  Convergence criterion met
 ---------------------------------------
 SCF time:   CPU 3.34s  wall 1.00s
 SCF   energy in the final basis set =      -91.5666866200
 Total energy in the final basis set =      -91.5666866200

 --------------------------------------------------------------
             Orbital Energies (a.u.) and Symmetries
 --------------------------------------------------------------

 Alpha MOs, Restricted
 -- Occupied --
-15.421 -11.047  -1.226  -0.659  -0.532  -0.453  -0.395
  1 A'    2 A'    3 A'    4 A'    5 A'    1 A"    6 A'
 -- Virtual --
  0.221   0.314   0.547   1.036
  7 A'    2 A"    8 A'    9 A'

 Beta MOs, Restricted
 -- Occupied --
-15.421 -11.047  -1.226  -0.659  -0.532  -0.453  -0.395
  1 A'    2 A'    3 A'    4 A'    5 A'    1 A"    6 A'
 -- Virtual --
  0.221   0.314   0.547   1.036
  7 A'    2 A"    8 A'    9 A'
 --------------------------------------------------------------

          Ground-State Mulliken Net Atomic Charges

     Atom                 Charge (a.u.)
  ----------------------------------------
      1 C                    -0.039310
      2 H                     0.163645
      3 N                    -0.124336
  ----------------------------------------
  Sum of atomic charges =    -0.000000

 -----------------------------------------------------------------
                    Cartesian Multipole Moments
 -----------------------------------------------------------------
    Charge (ESU x 10^10)
                -0.0000
    Dipole Moment (Debye)
         X       0.1033      Y       1.2326      Z      -0.0000
       Tot       1.2369
    Quadrupole Moments (Debye-Ang)
        XX     -13.4574     XY       0.6959     YY      -8.9353
        XZ      -0.0000     YZ      -0.0000     ZZ     -10.4924
    Octopole Moments (Debye-Ang^2)
       XXX      -1.7744    XXY       0.5967    XYY      -0.5154
       YYY       1.6049    XXZ      -0.0000    XYZ       0.0000
       YYZ      -0.0000    XZZ      -0.1547    YZZ       0.1376
       ZZZ      -0.0000
    Hexadecapole Moments (Debye-Ang^3)
      XXXX     -36.2392   XXXY      -0.2536   XXYY      -7.2382
      XYYY       0.0699   YYYY     -10.5309   XXXZ      -0.0000
      XXYZ       0.0000   XYYZ      -0.0000   YYYZ       0.0000
      XXZZ      -6.6287   XYZZ      -0.2118   YYZZ      -3.3072
      XZZZ       0.0000   YZZZ       0.0000   ZZZZ      -7.4971
 -----------------------------------------------------------------
 Calculating analytic gradient of the SCF energy
 Gradient of SCF Energy
            1           2           3
    1   0.0109912  -0.0139352   0.0029439
    2  -0.0110271  -0.0024715   0.0134986
    3  -0.0000000   0.0000000   0.0000000
 Max gradient component =       1.394E-02
 RMS gradient           =       8.390E-03
 Gradient time:  CPU 0.77 s  wall 0.19 s
rPathMan2.  file_steps = 951
 IRC --- Status = 3.  Assess initial corrector step
 IRC --- bisector search: b =  0.000000 E =      -91.566678 G.B =  -0.001896
 IRC --- bisector search: b =  0.011162 E =      -91.566687 G.B =   0.000371
 IRC --- performed gradient/energy interpolation
 IRC --- bisector search:  estimate b(min) =   9.344045737856299E-003
 ----------------------------------------------------------------
             Standard Nuclear Orientation (Angstroms)
    I     Atom           X                Y                Z
 ----------------------------------------------------------------
    1      C       0.6039568705    -0.1018782444     0.0000000000
    2      H       0.4164675537     1.0487350674    -0.0000000000
    3      N      -0.6130298602    -0.0746393770     0.0000000000
 ----------------------------------------------------------------
 Molecular Point Group                 Cs    NOp =  2
 Largest Abelian Subgroup              Cs    NOp =  2
 Nuclear Repulsion Energy =    23.4126344321 hartrees
 There are        7 alpha and        7 beta electrons

                       Distance Matrix (Angstroms)
             C (  1)   H (  2)
   H (  2)  1.165789
   N (  3)  1.217292  1.523757

 Applying Cartesian multipole field
    Component          Value
    ---------          -----
     (2,0,0)        1.00000E-10
     (0,2,0)        2.00000E-10
     (0,0,2)       -3.00000E-10
 Nucleus-field energy     =     0.0000000026 hartrees
 Requested basis set is STO-3G
 There are 5 shells and 11 basis functions
 A cutoff of  1.0D-14 yielded     15 shell pairs
 There are        78 function pairs
 Smallest overlap matrix eigenvalue = 1.82E-01
 Guess MOs from SCF MO coefficient file

 -----------------------------------------------------------------------
  General SCF calculation program by
  Eric Jon Sundstrom, Paul Horn, Yuezhi Mao, Dmitri Zuev, Alec White,
  David Stuck, Shaama M.S., Shane Yost, Joonho Lee, David Small,
  Daniel Levine, Susi Lehtola, Hugh Burton, Evgeny Epifanovsky
 -----------------------------------------------------------------------
 Hartree-Fock
 using 4 threads for integral computing
 -------------------------------------------------------
 OpenMP Integral computing Module
 Release: version 1.0, May 2013, Q-Chem Inc. Pittsburgh
 -------------------------------------------------------
 A restricted SCF calculation will be
 performed using DIIS
 SCF converges when DIIS error is below 1.0e-08
 ---------------------------------------
  Cycle       Energy         DIIS error
 ---------------------------------------
    1     -91.5666868926      4.40e-05
    2     -91.5666869404      1.86e-05
    3     -91.5666869504      1.24e-05
    4     -91.5666869556      4.62e-06
    5     -91.5666869578      1.44e-06
    6     -91.5666869581      3.44e-07
    7     -91.5666869581      1.10e-07
    8     -91.5666869581      2.88e-08
    9     -91.5666869581      4.68e-09  Convergence criterion met
 ---------------------------------------
 SCF time:   CPU 3.02s  wall 0.00s
 SCF   energy in the final basis set =      -91.5666869581
 Total energy in the final basis set =      -91.5666869581

 --------------------------------------------------------------
             Orbital Energies (a.u.) and Symmetries
 --------------------------------------------------------------

 Alpha MOs, Restricted
 -- Occupied --
-15.421 -11.047  -1.226  -0.659  -0.532  -0.453  -0.395
  1 A'    2 A'    3 A'    4 A'    5 A'    1 A"    6 A'
 -- Virtual --
  0.220   0.314   0.548   1.036
  7 A'    2 A"    8 A'    9 A'

 Beta MOs, Restricted
 -- Occupied --
-15.421 -11.047  -1.226  -0.659  -0.532  -0.453  -0.395
  1 A'    2 A'    3 A'    4 A'    5 A'    1 A"    6 A'
 -- Virtual --
  0.220   0.314   0.548   1.036
  7 A'    2 A"    8 A'    9 A'
 --------------------------------------------------------------

          Ground-State Mulliken Net Atomic Charges

     Atom                 Charge (a.u.)
  ----------------------------------------
      1 C                    -0.039315
      2 H                     0.163490
      3 N                    -0.124175
  ----------------------------------------
  Sum of atomic charges =    -0.000000

 -----------------------------------------------------------------
                    Cartesian Multipole Moments
 -----------------------------------------------------------------
    Charge (ESU x 10^10)
                -0.0000
    Dipole Moment (Debye)
         X       0.1028      Y       1.2314      Z      -0.0000
       Tot       1.2357
    Quadrupole Moments (Debye-Ang)
        XX     -13.4575     XY       0.6958     YY      -8.9374
        XZ      -0.0000     YZ      -0.0000     ZZ     -10.4924
    Octopole Moments (Debye-Ang^2)
       XXX      -1.7757    XXY       0.5967    XYY      -0.5170
       YYY       1.6020    XXZ      -0.0000    XYZ       0.0000
       YYZ      -0.0000    XZZ      -0.1545    YZZ       0.1377
       ZZZ      -0.0000
    Hexadecapole Moments (Debye-Ang^3)
      XXXX     -36.2530   XXXY      -0.2535   XXYY      -7.2399
      XYYY       0.0688   YYYY     -10.5324   XXXZ      -0.0000
      XXYZ       0.0000   XYYZ      -0.0000   YYYZ       0.0000
      XXZZ      -6.6308   XYZZ      -0.2119   YYZZ      -3.3068
      XZZZ       0.0000   YZZZ       0.0000   ZZZZ      -7.4970
 -----------------------------------------------------------------
 Calculating analytic gradient of the SCF energy
 Gradient of SCF Energy
            1           2           3
    1   0.0116794  -0.0139311   0.0022517
    2  -0.0107819  -0.0027650   0.0135469
    3  -0.0000000   0.0000000  -0.0000000
 Max gradient component =       1.393E-02
 RMS gradient           =       8.452E-03
 Gradient time:  CPU 0.77 s  wall 0.20 s
rPathMan2.  file_steps = 951
 IRC --- Status = 4.  Checking bisector search.
 IRC --- Bisector search finished successfully.
 ------------------------------------------------------------------------
 Reaction path following.  The coordinates are mass-weighted cartesian
 Step   2 E=     -91.566687 |G|=  0.025357 S_lin= 0.4505 S_tot= 0.4505
 ------------------------------------------------------------------------
  IRC -- SD step length =   0.150000000000000
 ----------------------------------------------------------------
             Standard Nuclear Orientation (Angstroms)
    I     Atom           X                Y                Z
 ----------------------------------------------------------------
    1      C       0.5989137620    -0.0972226923     0.0000000000
    2      H       0.4880911448     1.0629507423    -0.0000000000
    3      N      -0.6138630419    -0.0796521070     0.0000000000
 ----------------------------------------------------------------
 Molecular Point Group                 Cs    NOp =  2
 Largest Abelian Subgroup              Cs    NOp =  2
 Nuclear Repulsion Energy =    23.3819931981 hartrees
 There are        7 alpha and        7 beta electrons

                       Distance Matrix (Angstroms)
             C (  1)   H (  2)
   H (  2)  1.165454
   N (  3)  1.212904  1.587402

 Applying Cartesian multipole field
    Component          Value
    ---------          -----
     (2,0,0)        1.00000E-10
     (0,2,0)        2.00000E-10
     (0,0,2)       -3.00000E-10
 Nucleus-field energy     =     0.0000000027 hartrees
 Requested basis set is STO-3G
 There are 5 shells and 11 basis functions
 A cutoff of  1.0D-14 yielded     15 shell pairs
 There are        78 function pairs
 Smallest overlap matrix eigenvalue = 1.79E-01
 Guess MOs from SCF MO coefficient file

 -----------------------------------------------------------------------
  General SCF calculation program by
  Eric Jon Sundstrom, Paul Horn, Yuezhi Mao, Dmitri Zuev, Alec White,
  David Stuck, Shaama M.S., Shane Yost, Joonho Lee, David Small,
  Daniel Levine, Susi Lehtola, Hugh Burton, Evgeny Epifanovsky
 -----------------------------------------------------------------------
 Hartree-Fock
 using 4 threads for integral computing
 -------------------------------------------------------
 OpenMP Integral computing Module
 Release: version 1.0, May 2013, Q-Chem Inc. Pittsburgh
 -------------------------------------------------------
 A restricted SCF calculation will be
 performed using DIIS
 SCF converges when DIIS error is below 1.0e-08
 ---------------------------------------
  Cycle       Energy         DIIS error
 ---------------------------------------
    1     -91.5682878934      4.49e-03
    2     -91.5691565741      1.89e-03
    3     -91.5694045001      9.19e-04
    4     -91.5694382135      4.56e-04
    5     -91.5694558485      2.04e-04
    6     -91.5694604904      3.84e-05
    7     -91.5694606430      1.37e-05
    8     -91.5694606632      3.19e-06
    9     -91.5694606642      5.03e-07
   10     -91.5694606642      8.62e-08
   11     -91.5694606642      1.14e-08
   12     -91.5694606642      1.99e-09  Convergence criterion met
 ---------------------------------------
 SCF time:   CPU 4.02s  wall 1.00s
 SCF   energy in the final basis set =      -91.5694606642
 Total energy in the final basis set =      -91.5694606642

 --------------------------------------------------------------
             Orbital Energies (a.u.) and Symmetries
 --------------------------------------------------------------

 Alpha MOs, Restricted
 -- Occupied --
-15.418 -11.045  -1.219  -0.663  -0.526  -0.451  -0.394
  1 A'    2 A'    3 A'    4 A'    5 A'    1 A"    6 A'
 -- Virtual --
  0.210   0.317   0.566   1.049
  7 A'    2 A"    8 A'    9 A'

 Beta MOs, Restricted
 -- Occupied --
-15.418 -11.045  -1.219  -0.663  -0.526  -0.451  -0.394
  1 A'    2 A'    3 A'    4 A'    5 A'    1 A"    6 A'
 -- Virtual --
  0.210   0.317   0.566   1.049
  7 A'    2 A"    8 A'    9 A'
 --------------------------------------------------------------

          Ground-State Mulliken Net Atomic Charges

     Atom                 Charge (a.u.)
  ----------------------------------------
      1 C                    -0.043887
      2 H                     0.162140
      3 N                    -0.118253
  ----------------------------------------
  Sum of atomic charges =    -0.000000

 -----------------------------------------------------------------
                    Cartesian Multipole Moments
 -----------------------------------------------------------------
    Charge (ESU x 10^10)
                -0.0000
    Dipole Moment (Debye)
         X       0.2160      Y       1.2761      Z      -0.0000
       Tot       1.2943
    Quadrupole Moments (Debye-Ang)
        XX     -13.2791     XY       0.7275     YY      -8.9194
        XZ      -0.0000     YZ      -0.0000     ZZ     -10.4852
    Octopole Moments (Debye-Ang^2)
       XXX      -1.6086    XXY       0.6794    XYY      -0.4445
       YYY       1.7135    XXZ      -0.0000    XYZ       0.0000
       YYZ      -0.0000    XZZ      -0.1774    YZZ       0.1354
       ZZZ      -0.0000
    Hexadecapole Moments (Debye-Ang^3)
      XXXX     -36.0848   XXXY      -0.6078   XXYY      -7.1988
      XYYY      -0.0551   YYYY     -10.5180   XXXZ       0.0000
      XXYZ       0.0000   XYYZ      -0.0000   YYYZ       0.0000
      XXZZ      -6.6264   XYZZ      -0.3089   YYZZ      -3.3302
      XZZZ       0.0000   YZZZ       0.0000   ZZZZ      -7.4956
 -----------------------------------------------------------------
 Calculating analytic gradient of the SCF energy
 Gradient of SCF Energy
            1           2           3
    1   0.0162496  -0.0210277   0.0047781
    2  -0.0281819   0.0089537   0.0192283
    3   0.0000000  -0.0000000   0.0000000
 Max gradient component =       2.818E-02
 RMS gradient           =       1.481E-02
 Gradient time:  CPU 0.75 s  wall 0.19 s
rPathMan2.  file_steps = 951
 IRC --- Status = 2.  Assess steepest descent step
 IRC --- Previous SD length =   0.150000
 IRC --- Point 1 E =      -91.566687 |G| =   0.015319 G.D1 =  -0.015319
 IRC --- Point 2 E =      -91.569461 |G| =   0.025189 G.D1 =  -0.021320
 IRC --- Angle(G1/G2) =   32.18 Deg.  Curvature =  -0.0400
 IRC --- Corrector step required
 IRC --- equal length displacement: B_eq =   0.083139
 IRC --- chosen bisector length  : B_len =   0.041570
 ----------------------------------------------------------------
             Standard Nuclear Orientation (Angstroms)
    I     Atom           X                Y                Z
 ----------------------------------------------------------------
    1      C       0.5993017324    -0.0958501699     0.0000000000
    2      H       0.4851533130     1.0418450440    -0.0000000000
    3      N      -0.6139840732    -0.0793092759     0.0000000000
 ----------------------------------------------------------------
 Molecular Point Group                 Cs    NOp =  2
 Largest Abelian Subgroup              Cs    NOp =  2
 Nuclear Repulsion Energy =    23.4528296410 hartrees
 There are        7 alpha and        7 beta electrons

                       Distance Matrix (Angstroms)
             C (  1)   H (  2)
   H (  2)  1.143407
   N (  3)  1.213399  1.570061

 Applying Cartesian multipole field
    Component          Value
    ---------          -----
     (2,0,0)        1.00000E-10
     (0,2,0)        2.00000E-10
     (0,0,2)       -3.00000E-10
 Nucleus-field energy     =     0.0000000026 hartrees
 Requested basis set is STO-3G
 There are 5 shells and 11 basis functions
 A cutoff of  1.0D-14 yielded     15 shell pairs
 There are        78 function pairs
 Smallest overlap matrix eigenvalue = 1.78E-01
 Guess MOs from SCF MO coefficient file

 -----------------------------------------------------------------------
  General SCF calculation program by
  Eric Jon Sundstrom, Paul Horn, Yuezhi Mao, Dmitri Zuev, Alec White,
  David Stuck, Shaama M.S., Shane Yost, Joonho Lee, David Small,
  Daniel Levine, Susi Lehtola, Hugh Burton, Evgeny Epifanovsky
 -----------------------------------------------------------------------
 Hartree-Fock
 using 4 threads for integral computing
 -------------------------------------------------------
 OpenMP Integral computing Module
 Release: version 1.0, May 2013, Q-Chem Inc. Pittsburgh
 -------------------------------------------------------
 A restricted SCF calculation will be
 performed using DIIS
 SCF converges when DIIS error is below 1.0e-08
 ---------------------------------------
  Cycle       Energy         DIIS error
 ---------------------------------------
    1     -91.5693898024      9.65e-04
    2     -91.5694063888      3.48e-04
    3     -91.5694086542      2.30e-04
    4     -91.5694096927      4.08e-05
    5     -91.5694097912      1.14e-05
    6     -91.5694098055      4.84e-06
    7     -91.5694098084      8.24e-07
    8     -91.5694098085      2.00e-07
    9     -91.5694098085      4.88e-08
   10     -91.5694098085      1.12e-08
   11     -91.5694098085      1.53e-09  Convergence criterion met
 ---------------------------------------
 SCF time:   CPU 3.66s  wall 1.00s
 SCF   energy in the final basis set =      -91.5694098085
 Total energy in the final basis set =      -91.5694098085

 --------------------------------------------------------------
             Orbital Energies (a.u.) and Symmetries
 --------------------------------------------------------------

 Alpha MOs, Restricted
 -- Occupied --
-15.420 -11.047  -1.222  -0.669  -0.528  -0.452  -0.395
  1 A'    2 A'    3 A'    4 A'    5 A'    1 A"    6 A'
 -- Virtual --
  0.211   0.316   0.581   1.048
  7 A'    2 A"    8 A'    9 A'

 Beta MOs, Restricted
 -- Occupied --
-15.420 -11.047  -1.222  -0.669  -0.528  -0.452  -0.395
  1 A'    2 A'    3 A'    4 A'    5 A'    1 A"    6 A'
 -- Virtual --
  0.211   0.316   0.581   1.048
  7 A'    2 A"    8 A'    9 A'
 --------------------------------------------------------------

          Ground-State Mulliken Net Atomic Charges

     Atom                 Charge (a.u.)
  ----------------------------------------
      1 C                    -0.046593
      2 H                     0.162170
      3 N                    -0.115576
  ----------------------------------------
  Sum of atomic charges =    -0.000000

 -----------------------------------------------------------------
                    Cartesian Multipole Moments
 -----------------------------------------------------------------
    Charge (ESU x 10^10)
                 0.0000
    Dipole Moment (Debye)
         X       0.1990      Y       1.2437      Z      -0.0000
       Tot       1.2595
    Quadrupole Moments (Debye-Ang)
        XX     -13.2783     XY       0.7091     YY      -8.9765
        XZ      -0.0000     YZ      -0.0000     ZZ     -10.4807
    Octopole Moments (Debye-Ang^2)
       XXX      -1.6139    XXY       0.6634    XYY      -0.4814
       YYY       1.6286    XXZ      -0.0000    XYZ       0.0000
       YYZ      -0.0000    XZZ      -0.1761    YZZ       0.1419
       ZZZ      -0.0000
    Hexadecapole Moments (Debye-Ang^3)
      XXXX     -36.0810   XXXY      -0.5929   XXYY      -7.1818
      XYYY      -0.0927   YYYY     -10.4890   XXXZ       0.0000
      XXYZ       0.0000   XYYZ      -0.0000   YYYZ       0.0000
      XXZZ      -6.6243   XYZZ      -0.3025   YYZZ      -3.2980
      XZZZ       0.0000   YZZZ       0.0000   ZZZZ      -7.4902
 -----------------------------------------------------------------
 Calculating analytic gradient of the SCF energy
 Gradient of SCF Energy
            1           2           3
    1   0.0183166  -0.0223300   0.0040134
    2  -0.0143007  -0.0072670   0.0215678
    3  -0.0000000   0.0000000   0.0000000
 Max gradient component =       2.233E-02
 RMS gradient           =       1.322E-02
 Gradient time:  CPU 0.76 s  wall 0.19 s
rPathMan2.  file_steps = 951
 IRC --- Status = 3.  Assess initial corrector step
 IRC --- bisector search: b =  0.000000 E =      -91.569461 G.B =  -0.006981
 IRC --- bisector search: b =  0.041570 E =      -91.569410 G.B =   0.009699
 IRC --- performed gradient/energy interpolation
 IRC --- bisector search:  estimate b(min) =   1.768542967279262E-002
 ----------------------------------------------------------------
             Standard Nuclear Orientation (Angstroms)
    I     Atom           X                Y                Z
 ----------------------------------------------------------------
    1      C       0.5990788204    -0.0966387654     0.0000000000
    2      H       0.4868412716     1.0539715197    -0.0000000000
    3      N      -0.6139145335    -0.0795062527     0.0000000000
 ----------------------------------------------------------------
 Molecular Point Group                 Cs    NOp =  2
 Largest Abelian Subgroup              Cs    NOp =  2
 Nuclear Repulsion Energy =    23.4118435668 hartrees
 There are        7 alpha and        7 beta electrons

                       Distance Matrix (Angstroms)
             C (  1)   H (  2)
   H (  2)  1.156071
   N (  3)  1.213114  1.580011

 Applying Cartesian multipole field
    Component          Value
    ---------          -----
     (2,0,0)        1.00000E-10
     (0,2,0)        2.00000E-10
     (0,0,2)       -3.00000E-10
 Nucleus-field energy     =     0.0000000027 hartrees
 Requested basis set is STO-3G
 There are 5 shells and 11 basis functions
 A cutoff of  1.0D-14 yielded     15 shell pairs
 There are        78 function pairs
 Smallest overlap matrix eigenvalue = 1.78E-01
 Guess MOs from SCF MO coefficient file

 -----------------------------------------------------------------------
  General SCF calculation program by
  Eric Jon Sundstrom, Paul Horn, Yuezhi Mao, Dmitri Zuev, Alec White,
  David Stuck, Shaama M.S., Shane Yost, Joonho Lee, David Small,
  Daniel Levine, Susi Lehtola, Hugh Burton, Evgeny Epifanovsky
 -----------------------------------------------------------------------
 Hartree-Fock
 using 4 threads for integral computing
 -------------------------------------------------------
 OpenMP Integral computing Module
 Release: version 1.0, May 2013, Q-Chem Inc. Pittsburgh
 -------------------------------------------------------
 A restricted SCF calculation will be
 performed using DIIS
 SCF converges when DIIS error is below 1.0e-08
 ---------------------------------------
  Cycle       Energy         DIIS error
 ---------------------------------------
    1     -91.5695168751      5.60e-04
    2     -91.5695224085      2.01e-04
    3     -91.5695231664      1.33e-04
    4     -91.5695235136      2.38e-05
    5     -91.5695235471      6.57e-06
    6     -91.5695235519      2.80e-06
    7     -91.5695235529      4.81e-07
    8     -91.5695235529      1.20e-07
    9     -91.5695235529      2.99e-08
   10     -91.5695235529      6.30e-09  Convergence criterion met
 ---------------------------------------
 SCF time:   CPU 3.32s  wall 1.00s
 SCF   energy in the final basis set =      -91.5695235529
 Total energy in the final basis set =      -91.5695235529

 --------------------------------------------------------------
             Orbital Energies (a.u.) and Symmetries
 --------------------------------------------------------------

 Alpha MOs, Restricted
 -- Occupied --
-15.419 -11.046  -1.220  -0.666  -0.527  -0.451  -0.395
  1 A'    2 A'    3 A'    4 A'    5 A'    1 A"    6 A'
 -- Virtual --
  0.210   0.317   0.572   1.048
  7 A'    2 A"    8 A'    9 A'

 Beta MOs, Restricted
 -- Occupied --
-15.419 -11.046  -1.220  -0.666  -0.527  -0.451  -0.395
  1 A'    2 A'    3 A'    4 A'    5 A'    1 A"    6 A'
 -- Virtual --
  0.210   0.317   0.572   1.048
  7 A'    2 A"    8 A'    9 A'
 --------------------------------------------------------------

          Ground-State Mulliken Net Atomic Charges

     Atom                 Charge (a.u.)
  ----------------------------------------
      1 C                    -0.045013
      2 H                     0.162139
      3 N                    -0.117126
  ----------------------------------------
  Sum of atomic charges =    -0.000000

 -----------------------------------------------------------------
                    Cartesian Multipole Moments
 -----------------------------------------------------------------
    Charge (ESU x 10^10)
                 0.0000
    Dipole Moment (Debye)
         X       0.2088      Y       1.2623      Z       0.0000
       Tot       1.2795
    Quadrupole Moments (Debye-Ang)
        XX     -13.2788     XY       0.7196     YY      -8.9439
        XZ      -0.0000     YZ      -0.0000     ZZ     -10.4833
    Octopole Moments (Debye-Ang^2)
       XXX      -1.6108    XXY       0.6726    XYY      -0.4603
       YYY       1.6769    XXZ       0.0000    XYZ       0.0000
       YYZ      -0.0000    XZZ      -0.1769    YZZ       0.1382
       ZZZ       0.0000
    Hexadecapole Moments (Debye-Ang^3)
      XXXX     -36.0832   XXXY      -0.6015   XXYY      -7.1916
      XYYY      -0.0714   YYYY     -10.5064   XXXZ       0.0000
      XXYZ       0.0000   XYYZ      -0.0000   YYYZ       0.0000
      XXZZ      -6.6255   XYZZ      -0.3062   YYZZ      -3.3164
      XZZZ       0.0000   YZZZ       0.0000   ZZZZ      -7.4933
 -----------------------------------------------------------------
 Calculating analytic gradient of the SCF energy
 Gradient of SCF Energy
            1           2           3
    1   0.0171482  -0.0215938   0.0044456
    2  -0.0224621   0.0022499   0.0202123
    3   0.0000000  -0.0000000  -0.0000000
 Max gradient component =       2.246E-02
 RMS gradient           =       1.374E-02
 Gradient time:  CPU 0.77 s  wall 0.19 s
rPathMan2.  file_steps = 951
 IRC --- Status = 4.  Checking bisector search.
 IRC --- Bisector search finished successfully.
 ------------------------------------------------------------------------
 Reaction path following.  The coordinates are mass-weighted cartesian
 Step   3 E=     -91.569524 |G|=  0.041210 S_lin= 0.5437 S_tot= 0.5966
 ------------------------------------------------------------------------
  IRC -- SD step length =   0.150000000000000
 ----------------------------------------------------------------
             Standard Nuclear Orientation (Angstroms)
    I     Atom           X                Y                Z
 ----------------------------------------------------------------
    1      C       0.5943060409    -0.0903869818    -0.0000000000
    2      H       0.5584021591     1.0465155813    -0.0000000000
    3      N      -0.6149748621    -0.0843271303     0.0000000000
 ----------------------------------------------------------------
 Molecular Point Group                 Cs    NOp =  2
 Largest Abelian Subgroup              Cs    NOp =  2
 Nuclear Repulsion Energy =    23.4432542953 hartrees
 There are        7 alpha and        7 beta electrons

                       Distance Matrix (Angstroms)
             C (  1)   H (  2)
   H (  2)  1.137469
   N (  3)  1.209296  1.629607

 Applying Cartesian multipole field
    Component          Value
    ---------          -----
     (2,0,0)        1.00000E-10
     (0,2,0)        2.00000E-10
     (0,0,2)       -3.00000E-10
 Nucleus-field energy     =     0.0000000027 hartrees
 Requested basis set is STO-3G
 There are 5 shells and 11 basis functions
 A cutoff of  1.0D-14 yielded     15 shell pairs
 There are        78 function pairs
 Smallest overlap matrix eigenvalue = 1.75E-01
 Guess MOs from SCF MO coefficient file

 -----------------------------------------------------------------------
  General SCF calculation program by
  Eric Jon Sundstrom, Paul Horn, Yuezhi Mao, Dmitri Zuev, Alec White,
  David Stuck, Shaama M.S., Shane Yost, Joonho Lee, David Small,
  Daniel Levine, Susi Lehtola, Hugh Burton, Evgeny Epifanovsky
 -----------------------------------------------------------------------
 Hartree-Fock
 using 4 threads for integral computing
 -------------------------------------------------------
 OpenMP Integral computing Module
 Release: version 1.0, May 2013, Q-Chem Inc. Pittsburgh
 -------------------------------------------------------
 A restricted SCF calculation will be
 performed using DIIS
 SCF converges when DIIS error is below 1.0e-08
 ---------------------------------------
  Cycle       Energy         DIIS error
 ---------------------------------------
    1     -91.5724375229      4.67e-03
    2     -91.5733684429      1.95e-03
    3     -91.5736240912      1.14e-03
    4     -91.5736662399      4.91e-04
    5     -91.5736913074      2.12e-04
    6     -91.5736968276      4.22e-05
    7     -91.5736970172      1.53e-05
    8     -91.5736970428      3.06e-06
    9     -91.5736970437      3.91e-07
   10     -91.5736970437      4.91e-08
   11     -91.5736970437      6.56e-09  Convergence criterion met
 ---------------------------------------
 SCF time:   CPU 3.69s  wall 1.00s
 SCF   energy in the final basis set =      -91.5736970437
 Total energy in the final basis set =      -91.5736970437

 --------------------------------------------------------------
             Orbital Energies (a.u.) and Symmetries
 --------------------------------------------------------------

 Alpha MOs, Restricted
 -- Occupied --
-15.416 -11.047  -1.215  -0.674  -0.522  -0.449  -0.395
  1 A'    2 A'    3 A'    4 A'    5 A'    1 A"    6 A'
 -- Virtual --
  0.203   0.318   0.604   1.059
  7 A'    2 A"    8 A'    9 A'

 Beta MOs, Restricted
 -- Occupied --
-15.416 -11.047  -1.215  -0.674  -0.522  -0.449  -0.395
  1 A'    2 A'    3 A'    4 A'    5 A'    1 A"    6 A'
 -- Virtual --
  0.203   0.318   0.604   1.059
  7 A'    2 A"    8 A'    9 A'
 --------------------------------------------------------------

          Ground-State Mulliken Net Atomic Charges

     Atom                 Charge (a.u.)
  ----------------------------------------
      1 C                    -0.049056
      2 H                     0.160752
      3 N                    -0.111696
  ----------------------------------------
  Sum of atomic charges =    -0.000000

 -----------------------------------------------------------------
                    Cartesian Multipole Moments
 -----------------------------------------------------------------
    Charge (ESU x 10^10)
                -0.0000
    Dipole Moment (Debye)
         X       0.3393      Y       1.2719      Z      -0.0000
       Tot       1.3164
    Quadrupole Moments (Debye-Ang)
        XX     -13.0673     XY       0.7240     YY      -8.9879
        XZ      -0.0000     YZ      -0.0000     ZZ     -10.4724
    Octopole Moments (Debye-Ang^2)
       XXX      -1.4076    XXY       0.7537    XYY      -0.3915
       YYY       1.7019    XXZ      -0.0000    XYZ       0.0000
       YYZ      -0.0000    XZZ      -0.2007    YZZ       0.1420
       ZZZ      -0.0000
    Hexadecapole Moments (Debye-Ang^3)
      XXXX     -35.9181   XXXY      -0.9490   XXYY      -7.1163
      XYYY      -0.2373   YYYY     -10.4628   XXXZ       0.0000
      XXYZ       0.0000   XYYZ       0.0000   YYYZ       0.0000
      XXZZ      -6.6248   XYZZ      -0.4006   YYZZ      -3.3074
      XZZZ       0.0000   YZZZ       0.0000   ZZZZ      -7.4887
 -----------------------------------------------------------------
 Calculating analytic gradient of the SCF energy
 Gradient of SCF Energy
            1           2           3
    1   0.0254412  -0.0292118   0.0037706
    2  -0.0275634   0.0001225   0.0274409
    3   0.0000000  -0.0000000  -0.0000000
 Max gradient component =       2.921E-02
 RMS gradient           =       1.834E-02
 Gradient time:  CPU 0.77 s  wall 0.19 s
rPathMan2.  file_steps = 951
 IRC --- Status = 2.  Assess steepest descent step
 IRC --- Previous SD length =   0.150000
 IRC --- Point 1 E =      -91.569524 |G| =   0.023766 G.D1 =  -0.023766
 IRC --- Point 2 E =      -91.573697 |G| =   0.031918 G.D1 =  -0.031765
 IRC --- Angle(G1/G2) =    5.62 Deg.  Curvature =  -0.0533
 IRC --- Corrector step required
 IRC --- equal length displacement: B_eq =   0.014700
 IRC --- chosen bisector length  : B_len =   0.015000
 ----------------------------------------------------------------
             Standard Nuclear Orientation (Angstroms)
    I     Atom           X                Y                Z
 ----------------------------------------------------------------
    1      C       0.5937961637    -0.0909374866     0.0000000000
    2      H       0.5589342463     1.0538150292    -0.0000000000
    3      N      -0.6145762157    -0.0843807288     0.0000000000
 ----------------------------------------------------------------
 Molecular Point Group                 Cs    NOp =  2
 Largest Abelian Subgroup              Cs    NOp =  2
 Nuclear Repulsion Energy =    23.4307485471 hartrees
 There are        7 alpha and        7 beta electrons

                       Distance Matrix (Angstroms)
             C (  1)   H (  2)
   H (  2)  1.145283
   N (  3)  1.208390  1.634814

 Applying Cartesian multipole field
    Component          Value
    ---------          -----
     (2,0,0)        1.00000E-10
     (0,2,0)        2.00000E-10
     (0,0,2)       -3.00000E-10
 Nucleus-field energy     =     0.0000000027 hartrees
 Requested basis set is STO-3G
 There are 5 shells and 11 basis functions
 A cutoff of  1.0D-14 yielded     15 shell pairs
 There are        78 function pairs
 Smallest overlap matrix eigenvalue = 1.75E-01
 Guess MOs from SCF MO coefficient file

 -----------------------------------------------------------------------
  General SCF calculation program by
  Eric Jon Sundstrom, Paul Horn, Yuezhi Mao, Dmitri Zuev, Alec White,
  David Stuck, Shaama M.S., Shane Yost, Joonho Lee, David Small,
  Daniel Levine, Susi Lehtola, Hugh Burton, Evgeny Epifanovsky
 -----------------------------------------------------------------------
 Hartree-Fock
 using 4 threads for integral computing
 -------------------------------------------------------
 OpenMP Integral computing Module
 Release: version 1.0, May 2013, Q-Chem Inc. Pittsburgh
 -------------------------------------------------------
 A restricted SCF calculation will be
 performed using DIIS
 SCF converges when DIIS error is below 1.0e-08
 ---------------------------------------
  Cycle       Energy         DIIS error
 ---------------------------------------
    1     -91.5736715141      3.75e-04
    2     -91.5736741703      1.52e-04
    3     -91.5736745973      9.74e-05
    4     -91.5736747944      1.93e-05
    5     -91.5736748209      7.26e-06
    6     -91.5736748273      2.40e-06
    7     -91.5736748280      5.40e-07
    8     -91.5736748280      2.12e-07
    9     -91.5736748280      4.23e-08
   10     -91.5736748280      3.66e-09  Convergence criterion met
 ---------------------------------------
 SCF time:   CPU 3.34s  wall 1.00s
 SCF   energy in the final basis set =      -91.5736748280
 Total energy in the final basis set =      -91.5736748280

 --------------------------------------------------------------
             Orbital Energies (a.u.) and Symmetries
 --------------------------------------------------------------

 Alpha MOs, Restricted
 -- Occupied --
-15.416 -11.046  -1.214  -0.672  -0.522  -0.449  -0.395
  1 A'    2 A'    3 A'    4 A'    5 A'    1 A"    6 A'
 -- Virtual --
  0.203   0.319   0.599   1.060
  7 A'    2 A"    8 A'    9 A'

 Beta MOs, Restricted
 -- Occupied --
-15.416 -11.046  -1.214  -0.672  -0.522  -0.449  -0.395
  1 A'    2 A'    3 A'    4 A'    5 A'    1 A"    6 A'
 -- Virtual --
  0.203   0.319   0.599   1.060
  7 A'    2 A"    8 A'    9 A'
 --------------------------------------------------------------

          Ground-State Mulliken Net Atomic Charges

     Atom                 Charge (a.u.)
  ----------------------------------------
      1 C                    -0.048148
      2 H                     0.161090
      3 N                    -0.112942
  ----------------------------------------
  Sum of atomic charges =    -0.000000

 -----------------------------------------------------------------
                    Cartesian Multipole Moments
 -----------------------------------------------------------------
    Charge (ESU x 10^10)
                -0.0000
    Dipole Moment (Debye)
         X       0.3459      Y       1.2839      Z      -0.0000
       Tot       1.3297
    Quadrupole Moments (Debye-Ang)
        XX     -13.0674     XY       0.7310     YY      -8.9661
        XZ      -0.0000     YZ      -0.0000     ZZ     -10.4739
    Octopole Moments (Debye-Ang^2)
       XXX      -1.4040    XXY       0.7588    XYY      -0.3748
       YYY       1.7339    XXZ      -0.0000    XYZ      -0.0000
       YYZ      -0.0000    XZZ      -0.2017    YZZ       0.1399
       ZZZ      -0.0000
    Hexadecapole Moments (Debye-Ang^3)
      XXXX     -35.8898   XXXY      -0.9521   XXYY      -7.1152
      XYYY      -0.2203   YYYY     -10.4681   XXXZ       0.0000
      XXYZ       0.0000   XYYZ      -0.0000   YYYZ       0.0000
      XXZZ      -6.6210   XYZZ      -0.4023   YYZZ      -3.3181
      XZZZ       0.0000   YZZZ       0.0000   ZZZZ      -7.4906
 -----------------------------------------------------------------
 Calculating analytic gradient of the SCF energy
 Gradient of SCF Energy
            1           2           3
    1   0.0227853  -0.0284976   0.0057124
    2  -0.0327611   0.0059670   0.0267941
    3   0.0000000  -0.0000000   0.0000000
 Max gradient component =       3.276E-02
 RMS gradient           =       1.883E-02
 Gradient time:  CPU 0.77 s  wall 0.20 s
rPathMan2.  file_steps = 951
 IRC --- Status = 3.  Assess initial corrector step
 IRC --- bisector search: b =  0.000000 E =      -91.573697 G.B =  -0.001564
 IRC --- bisector search: b =  0.015000 E =      -91.573675 G.B =   0.004491
 IRC --- performed gradient/energy interpolation
 IRC --- bisector search:  estimate b(min) =   3.852162132865061E-003
 ----------------------------------------------------------------
             Standard Nuclear Orientation (Angstroms)
    I     Atom           X                Y                Z
 ----------------------------------------------------------------
    1      C       0.5941750990    -0.0905283574     0.0000000000
    2      H       0.5585388049     1.0483901584    -0.0000000000
    3      N      -0.6148724854    -0.0843408950     0.0000000000
 ----------------------------------------------------------------
 Molecular Point Group                 Cs    NOp =  2
 Largest Abelian Subgroup              Cs    NOp =  2
 Nuclear Repulsion Energy =    23.4400142148 hartrees
 There are        7 alpha and        7 beta electrons

                       Distance Matrix (Angstroms)
             C (  1)   H (  2)
   H (  2)  1.139476
   N (  3)  1.209063  1.630943

 Applying Cartesian multipole field
    Component          Value
    ---------          -----
     (2,0,0)        1.00000E-10
     (0,2,0)        2.00000E-10
     (0,0,2)       -3.00000E-10
 Nucleus-field energy     =     0.0000000027 hartrees
 Requested basis set is STO-3G
 There are 5 shells and 11 basis functions
 A cutoff of  1.0D-14 yielded     15 shell pairs
 There are        78 function pairs
 Smallest overlap matrix eigenvalue = 1.75E-01
 Guess MOs from SCF MO coefficient file

 -----------------------------------------------------------------------
  General SCF calculation program by
  Eric Jon Sundstrom, Paul Horn, Yuezhi Mao, Dmitri Zuev, Alec White,
  David Stuck, Shaama M.S., Shane Yost, Joonho Lee, David Small,
  Daniel Levine, Susi Lehtola, Hugh Burton, Evgeny Epifanovsky
 -----------------------------------------------------------------------
 Hartree-Fock
 using 4 threads for integral computing
 -------------------------------------------------------
 OpenMP Integral computing Module
 Release: version 1.0, May 2013, Q-Chem Inc. Pittsburgh
 -------------------------------------------------------
 A restricted SCF calculation will be
 performed using DIIS
 SCF converges when DIIS error is below 1.0e-08
 ---------------------------------------
  Cycle       Energy         DIIS error
 ---------------------------------------
    1     -91.5736982028      2.78e-04
    2     -91.5736996670      1.13e-04
    3     -91.5736999029      7.24e-05
    4     -91.5737000119      1.43e-05
    5     -91.5737000265      5.41e-06
    6     -91.5737000300      1.78e-06
    7     -91.5737000304      4.03e-07
    8     -91.5737000304      1.58e-07
    9     -91.5737000304      3.13e-08
   10     -91.5737000304      2.83e-09  Convergence criterion met
 ---------------------------------------
 SCF time:   CPU 3.33s  wall 0.00s
 SCF   energy in the final basis set =      -91.5737000304
 Total energy in the final basis set =      -91.5737000304

 --------------------------------------------------------------
             Orbital Energies (a.u.) and Symmetries
 --------------------------------------------------------------

 Alpha MOs, Restricted
 -- Occupied --
-15.416 -11.046  -1.215  -0.674  -0.522  -0.449  -0.395
  1 A'    2 A'    3 A'    4 A'    5 A'    1 A"    6 A'
 -- Virtual --
  0.203   0.319   0.603   1.059
  7 A'    2 A"    8 A'    9 A'

 Beta MOs, Restricted
 -- Occupied --
-15.416 -11.046  -1.215  -0.674  -0.522  -0.449  -0.395
  1 A'    2 A'    3 A'    4 A'    5 A'    1 A"    6 A'
 -- Virtual --
  0.203   0.319   0.603   1.059
  7 A'    2 A"    8 A'    9 A'
 --------------------------------------------------------------

          Ground-State Mulliken Net Atomic Charges

     Atom                 Charge (a.u.)
  ----------------------------------------
      1 C                    -0.048820
      2 H                     0.160837
      3 N                    -0.112016
  ----------------------------------------
  Sum of atomic charges =    -0.000000

 -----------------------------------------------------------------
                    Cartesian Multipole Moments
 -----------------------------------------------------------------
    Charge (ESU x 10^10)
                -0.0000
    Dipole Moment (Debye)
         X       0.3410      Y       1.2750      Z      -0.0000
       Tot       1.3198
    Quadrupole Moments (Debye-Ang)
        XX     -13.0673     XY       0.7258     YY      -8.9823
        XZ      -0.0000     YZ      -0.0000     ZZ     -10.4728
    Octopole Moments (Debye-Ang^2)
       XXX      -1.4067    XXY       0.7550    XYY      -0.3873
       YYY       1.7101    XXZ      -0.0000    XYZ      -0.0000
       YYZ      -0.0000    XZZ      -0.2010    YZZ       0.1415
       ZZZ      -0.0000
    Hexadecapole Moments (Debye-Ang^3)
      XXXX     -35.9109   XXXY      -0.9498   XXYY      -7.1160
      XYYY      -0.2330   YYYY     -10.4643   XXXZ       0.0000
      XXYZ       0.0000   XYYZ      -0.0000   YYYZ       0.0000
      XXZZ      -6.6238   XYZZ      -0.4010   YYZZ      -3.3102
      XZZZ       0.0000   YZZZ       0.0000   ZZZZ      -7.4892
 -----------------------------------------------------------------
 Calculating analytic gradient of the SCF energy
 Gradient of SCF Energy
            1           2           3
    1   0.0247605  -0.0290283   0.0042678
    2  -0.0289181   0.0016438   0.0272743
    3   0.0000000  -0.0000000   0.0000000
 Max gradient component =       2.903E-02
 RMS gradient           =       1.843E-02
 Gradient time:  CPU 0.77 s  wall 0.19 s
rPathMan2.  file_steps = 951
 IRC --- Status = 4.  Checking bisector search.
 IRC --- Bisector search finished successfully.
 ------------------------------------------------------------------------
 Reaction path following.  The coordinates are mass-weighted cartesian
 Step   4 E=     -91.573700 |G|=  0.055288 S_lin= 0.6596 S_tot= 0.7464
 ------------------------------------------------------------------------
  IRC -- SD step length =   0.150000000000000
 ----------------------------------------------------------------
             Standard Nuclear Orientation (Angstroms)
    I     Atom           X                Y                Z
 ----------------------------------------------------------------
    1      C       0.5890316316    -0.0845212407     0.0000000000
    2      H       0.6303368047     1.0443244017    -0.0000000000
    3      N      -0.6156322167    -0.0891961023     0.0000000000
 ----------------------------------------------------------------
 Molecular Point Group                 Cs    NOp =  2
 Largest Abelian Subgroup              Cs    NOp =  2
 Nuclear Repulsion Energy =    23.4592465298 hartrees
 There are        7 alpha and        7 beta electrons

                       Distance Matrix (Angstroms)
             C (  1)   H (  2)
   H (  2)  1.129601
   N (  3)  1.204673  1.684431

 Applying Cartesian multipole field
    Component          Value
    ---------          -----
     (2,0,0)        1.00000E-10
     (0,2,0)        2.00000E-10
     (0,0,2)       -3.00000E-10
 Nucleus-field energy     =     0.0000000027 hartrees
 Requested basis set is STO-3G
 There are 5 shells and 11 basis functions
 A cutoff of  1.0D-14 yielded     15 shell pairs
 There are        78 function pairs
 Smallest overlap matrix eigenvalue = 1.73E-01
 Guess MOs from SCF MO coefficient file

 -----------------------------------------------------------------------
  General SCF calculation program by
  Eric Jon Sundstrom, Paul Horn, Yuezhi Mao, Dmitri Zuev, Alec White,
  David Stuck, Shaama M.S., Shane Yost, Joonho Lee, David Small,
  Daniel Levine, Susi Lehtola, Hugh Burton, Evgeny Epifanovsky
 -----------------------------------------------------------------------
 Hartree-Fock
 using 4 threads for integral computing
 -------------------------------------------------------
 OpenMP Integral computing Module
 Release: version 1.0, May 2013, Q-Chem Inc. Pittsburgh
 -------------------------------------------------------
 A restricted SCF calculation will be
 performed using DIIS
 SCF converges when DIIS error is below 1.0e-08
 ---------------------------------------
  Cycle       Energy         DIIS error
 ---------------------------------------
    1     -91.5778559206      4.38e-03
    2     -91.5786922770      1.83e-03
    3     -91.5789398872      8.44e-04
    4     -91.5789734961      5.08e-04
    5     -91.5789986988      2.20e-04
    6     -91.5790046122      4.39e-05
    7     -91.5790048076      1.58e-05
    8     -91.5790048343      2.63e-06
    9     -91.5790048349      2.76e-07
   10     -91.5790048349      2.80e-08
   11     -91.5790048349      3.99e-09  Convergence criterion met
 ---------------------------------------
 SCF time:   CPU 3.62s  wall 1.00s
 SCF   energy in the final basis set =      -91.5790048349
 Total energy in the final basis set =      -91.5790048349

 --------------------------------------------------------------
             Orbital Energies (a.u.) and Symmetries
 --------------------------------------------------------------

 Alpha MOs, Restricted
 -- Occupied --
-15.413 -11.048  -1.209  -0.680  -0.518  -0.447  -0.397
  1 A'    2 A'    3 A'    4 A'    5 A'    1 A"    6 A'
 -- Virtual --
  0.199   0.321   0.629   1.069
  7 A'    2 A"    8 A'    9 A'

 Beta MOs, Restricted
 -- Occupied --
-15.413 -11.048  -1.209  -0.680  -0.518  -0.447  -0.397
  1 A'    2 A'    3 A'    4 A'    5 A'    1 A"    6 A'
 -- Virtual --
  0.199   0.321   0.629   1.069
  7 A'    2 A"    8 A'    9 A'
 --------------------------------------------------------------

          Ground-State Mulliken Net Atomic Charges

     Atom                 Charge (a.u.)
  ----------------------------------------
      1 C                    -0.049272
      2 H                     0.159667
      3 N                    -0.110395
  ----------------------------------------
  Sum of atomic charges =     0.000000

 -----------------------------------------------------------------
                    Cartesian Multipole Moments
 -----------------------------------------------------------------
    Charge (ESU x 10^10)
                -0.0000
    Dipole Moment (Debye)
         X       0.4985      Y       1.2859      Z      -0.0000
       Tot       1.3792
    Quadrupole Moments (Debye-Ang)
        XX     -12.8358     XY       0.7281     YY      -9.0176
        XZ      -0.0000     YZ      -0.0000     ZZ     -10.4642
    Octopole Moments (Debye-Ang^2)
       XXX      -1.1755    XXY       0.8487    XYY      -0.2818
       YYY       1.7464    XXZ      -0.0000    XYZ      -0.0000
       YYZ      -0.0000    XZZ      -0.2270    YZZ       0.1431
       ZZZ      -0.0000
    Hexadecapole Moments (Debye-Ang^3)
      XXXX     -35.7387   XXXY      -1.2796   XXYY      -7.0231
      XYYY      -0.3889   YYYY     -10.4267   XXXZ       0.0000
      XXYZ       0.0000   XYYZ      -0.0000   YYYZ       0.0000
      XXZZ      -6.6262   XYZZ      -0.4956   YYZZ      -3.3067
      XZZZ       0.0000   YZZZ       0.0000   ZZZZ      -7.4879
 -----------------------------------------------------------------
 Calculating analytic gradient of the SCF energy
 Gradient of SCF Energy
            1           2           3
    1   0.0315245  -0.0347146   0.0031901
    2  -0.0377948   0.0050785   0.0327163
    3  -0.0000000  -0.0000000   0.0000000
 Max gradient component =       3.779E-02
 RMS gradient           =       2.293E-02
 Gradient time:  CPU 0.78 s  wall 0.20 s
rPathMan2.  file_steps = 951
 IRC --- Status = 2.  Assess steepest descent step
 IRC --- Previous SD length =   0.150000
 IRC --- Point 1 E =      -91.573700 |G| =   0.031843 G.D1 =  -0.031843
 IRC --- Point 2 E =      -91.579005 |G| =   0.038734 G.D1 =  -0.038595
 IRC --- Angle(G1/G2) =    4.86 Deg.  Curvature =  -0.0450
 IRC --- Corrector step required
 IRC --- equal length displacement: B_eq =   0.012724
 IRC --- chosen bisector length  : B_len =   0.015000
 ----------------------------------------------------------------
             Standard Nuclear Orientation (Angstroms)
    I     Atom           X                Y                Z
 ----------------------------------------------------------------
    1      C       0.5887486829    -0.0839941058     0.0000000000
    2      H       0.6289084939     1.0369439590    -0.0000000000
    3      N      -0.6152869439    -0.0891166474     0.0000000000
 ----------------------------------------------------------------
 Molecular Point Group                 Cs    NOp =  2
 Largest Abelian Subgroup              Cs    NOp =  2
 Nuclear Repulsion Energy =    23.4970418557 hartrees
 There are        7 alpha and        7 beta electrons

                       Distance Matrix (Angstroms)
             C (  1)   H (  2)
   H (  2)  1.121657
   N (  3)  1.204047  1.678105

 Applying Cartesian multipole field
    Component          Value
    ---------          -----
     (2,0,0)        1.00000E-10
     (0,2,0)        2.00000E-10
     (0,0,2)       -3.00000E-10
 Nucleus-field energy     =     0.0000000027 hartrees
 Requested basis set is STO-3G
 There are 5 shells and 11 basis functions
 A cutoff of  1.0D-14 yielded     15 shell pairs
 There are        78 function pairs
 Smallest overlap matrix eigenvalue = 1.72E-01
 Guess MOs from SCF MO coefficient file

 -----------------------------------------------------------------------
  General SCF calculation program by
  Eric Jon Sundstrom, Paul Horn, Yuezhi Mao, Dmitri Zuev, Alec White,
  David Stuck, Shaama M.S., Shane Yost, Joonho Lee, David Small,
  Daniel Levine, Susi Lehtola, Hugh Burton, Evgeny Epifanovsky
 -----------------------------------------------------------------------
 Hartree-Fock
 using 4 threads for integral computing
 -------------------------------------------------------
 OpenMP Integral computing Module
 Release: version 1.0, May 2013, Q-Chem Inc. Pittsburgh
 -------------------------------------------------------
 A restricted SCF calculation will be
 performed using DIIS
 SCF converges when DIIS error is below 1.0e-08
 ---------------------------------------
  Cycle       Energy         DIIS error
 ---------------------------------------
    1     -91.5789789169      3.60e-04
    2     -91.5789812330      1.29e-04
    3     -91.5789815674      9.63e-05
    4     -91.5789817453      1.62e-05
    5     -91.5789817653      6.34e-06
    6     -91.5789817702      1.97e-06
    7     -91.5789817707      4.16e-07
    8     -91.5789817707      1.81e-07
    9     -91.5789817707      2.74e-08
   10     -91.5789817707      2.38e-09  Convergence criterion met
 ---------------------------------------
 SCF time:   CPU 3.29s  wall 1.00s
 SCF   energy in the final basis set =      -91.5789817707
 Total energy in the final basis set =      -91.5789817707

 --------------------------------------------------------------
             Orbital Energies (a.u.) and Symmetries
 --------------------------------------------------------------

 Alpha MOs, Restricted
 -- Occupied --
-15.414 -11.048  -1.210  -0.683  -0.519  -0.448  -0.397
  1 A'    2 A'    3 A'    4 A'    5 A'    1 A"    6 A'
 -- Virtual --
  0.199   0.321   0.635   1.070
  7 A'    2 A"    8 A'    9 A'

 Beta MOs, Restricted
 -- Occupied --
-15.414 -11.048  -1.210  -0.683  -0.519  -0.448  -0.397
  1 A'    2 A'    3 A'    4 A'    5 A'    1 A"    6 A'
 -- Virtual --
  0.199   0.321   0.635   1.070
  7 A'    2 A"    8 A'    9 A'
 --------------------------------------------------------------

          Ground-State Mulliken Net Atomic Charges

     Atom                 Charge (a.u.)
  ----------------------------------------
      1 C                    -0.050347
      2 H                     0.159925
      3 N                    -0.109578
  ----------------------------------------
  Sum of atomic charges =    -0.000000

 -----------------------------------------------------------------
                    Cartesian Multipole Moments
 -----------------------------------------------------------------
    Charge (ESU x 10^10)
                 0.0000
    Dipole Moment (Debye)
         X       0.4941      Y       1.2755      Z      -0.0000
       Tot       1.3679
    Quadrupole Moments (Debye-Ang)
        XX     -12.8340     XY       0.7192     YY      -9.0357
        XZ      -0.0000     YZ      -0.0000     ZZ     -10.4622
    Octopole Moments (Debye-Ang^2)
       XXX      -1.1723    XXY       0.8408    XYY      -0.2950
       YYY       1.7196    XXZ      -0.0000    XYZ       0.0000
       YYZ      -0.0000    XZZ      -0.2271    YZZ       0.1455
       ZZZ      -0.0000
    Hexadecapole Moments (Debye-Ang^3)
      XXXX     -35.6989   XXXY      -1.2763   XXYY      -7.0158
      XYYY      -0.4050   YYYY     -10.4127   XXXZ       0.0000
      XXYZ       0.0000   XYYZ      -0.0000   YYYZ       0.0000
      XXZZ      -6.6194   XYZZ      -0.4925   YYZZ      -3.2952
      XZZZ       0.0000   YZZZ       0.0000   ZZZZ      -7.4859
 -----------------------------------------------------------------
 Calculating analytic gradient of the SCF energy
 Gradient of SCF Energy
            1           2           3
    1   0.0314584  -0.0359714   0.0045130
    2  -0.0323691  -0.0011021   0.0334712
    3  -0.0000000   0.0000000   0.0000000
 Max gradient component =       3.597E-02
 RMS gradient           =       2.229E-02
 Gradient time:  CPU 0.77 s  wall 0.19 s
rPathMan2.  file_steps = 951
 IRC --- Status = 3.  Assess initial corrector step
 IRC --- bisector search: b =  0.000000 E =      -91.579005 G.B =  -0.001643
 IRC --- bisector search: b =  0.015000 E =      -91.578982 G.B =   0.004758
 IRC --- performed gradient/energy interpolation
 IRC --- bisector search:  estimate b(min) =   3.874089548932947E-003
 ----------------------------------------------------------------
             Standard Nuclear Orientation (Angstroms)
    I     Atom           X                Y                Z
 ----------------------------------------------------------------
    1      C       0.5889585537    -0.0843850962     0.0000000000
    2      H       0.6299679111     1.0424182353    -0.0000000000
    3      N      -0.6155430422    -0.0891755813     0.0000000000
 ----------------------------------------------------------------
 Molecular Point Group                 Cs    NOp =  2
 Largest Abelian Subgroup              Cs    NOp =  2
 Nuclear Repulsion Energy =    23.4689760355 hartrees
 There are        7 alpha and        7 beta electrons

                       Distance Matrix (Angstroms)
             C (  1)   H (  2)
   H (  2)  1.127549
   N (  3)  1.204511  1.682796

 Applying Cartesian multipole field
    Component          Value
    ---------          -----
     (2,0,0)        1.00000E-10
     (0,2,0)        2.00000E-10
     (0,0,2)       -3.00000E-10
 Nucleus-field energy     =     0.0000000027 hartrees
 Requested basis set is STO-3G
 There are 5 shells and 11 basis functions
 A cutoff of  1.0D-14 yielded     15 shell pairs
 There are        78 function pairs
 Smallest overlap matrix eigenvalue = 1.73E-01
 Guess MOs from SCF MO coefficient file

 -----------------------------------------------------------------------
  General SCF calculation program by
  Eric Jon Sundstrom, Paul Horn, Yuezhi Mao, Dmitri Zuev, Alec White,
  David Stuck, Shaama M.S., Shane Yost, Joonho Lee, David Small,
  Daniel Levine, Susi Lehtola, Hugh Burton, Evgeny Epifanovsky
 -----------------------------------------------------------------------
 Hartree-Fock
 using 4 threads for integral computing
 -------------------------------------------------------
 OpenMP Integral computing Module
 Release: version 1.0, May 2013, Q-Chem Inc. Pittsburgh
 -------------------------------------------------------
 A restricted SCF calculation will be
 performed using DIIS
 SCF converges when DIIS error is below 1.0e-08
 ---------------------------------------
  Cycle       Energy         DIIS error
 ---------------------------------------
    1     -91.5790064717      2.68e-04
    2     -91.5790077490      9.59e-05
    3     -91.5790079339      7.17e-05
    4     -91.5790080324      1.21e-05
    5     -91.5790080435      4.71e-06
    6     -91.5790080462      1.47e-06
    7     -91.5790080465      3.11e-07
    8     -91.5790080465      1.36e-07
    9     -91.5790080465      2.07e-08
   10     -91.5790080465      1.74e-09  Convergence criterion met
 ---------------------------------------
 SCF time:   CPU 3.33s  wall 1.00s
 SCF   energy in the final basis set =      -91.5790080465
[...]
      XXZZ      -6.5702   XYZZ       1.8390   YYZZ      -3.2547
      XZZZ       0.0000   YZZZ      -0.0000   ZZZZ      -7.2851
 -----------------------------------------------------------------
 Calculating analytic gradient of the SCF energy
 Gradient of SCF Energy
            1           2           3
    1   0.0097912   0.0336821  -0.0434733
    2  -0.0022891  -0.0151243   0.0174134
    3  -0.0000000  -0.0000000   0.0000000
 Max gradient component =       4.347E-02
 RMS gradient           =       2.016E-02
 Gradient time:  CPU 0.76 s  wall 0.19 s
rPathMan2.  file_steps = 952
 IRC --- Status = 2.  Assess steepest descent step
 IRC --- Previous SD length =   0.150000
 IRC --- Point 1 E =      -91.643789 |G| =   0.005313 G.D1 =  -0.005313
 IRC --- Point 2 E =      -91.643289 |G| =   0.038957 G.D1 =   0.011210
 IRC --- Angle(G1/G2) =  106.72 Deg.  Curvature =   0.1102
 IRC --- Minimum along SD direction =   0.048232
 IRC --- SD step rejected. Backing up to the estimated minimum.
 ----------------------------------------------------------------
             Standard Nuclear Orientation (Angstroms)
    I     Atom           X                Y                Z
 ----------------------------------------------------------------
    1      C       0.6391343675    -0.3027214152     0.0000000000
    2      H      -1.3069151262     0.6573786347     0.0000000000
    3      N      -0.4411210669     0.1514308438     0.0000000000
 ----------------------------------------------------------------
 Molecular Point Group                 Cs    NOp =  2
 Largest Abelian Subgroup              Cs    NOp =  2
 Nuclear Repulsion Energy =    24.1234045206 hartrees
 There are        7 alpha and        7 beta electrons

                       Distance Matrix (Angstroms)
             C (  1)   H (  2)
   H (  2)  2.170000
   N (  3)  1.171839  1.002787

 Applying Cartesian multipole field
    Component          Value
    ---------          -----
     (2,0,0)        1.00000E-10
     (0,2,0)        2.00000E-10
     (0,0,2)       -3.00000E-10
 Nucleus-field energy     =     0.0000000028 hartrees
 Requested basis set is STO-3G
 There are 5 shells and 11 basis functions
 A cutoff of  1.0D-14 yielded     15 shell pairs
 There are        78 function pairs
 Smallest overlap matrix eigenvalue = 1.67E-01
 Guess MOs from SCF MO coefficient file

 -----------------------------------------------------------------------
  General SCF calculation program by
  Eric Jon Sundstrom, Paul Horn, Yuezhi Mao, Dmitri Zuev, Alec White,
  David Stuck, Shaama M.S., Shane Yost, Joonho Lee, David Small,
  Daniel Levine, Susi Lehtola, Hugh Burton, Evgeny Epifanovsky
 -----------------------------------------------------------------------
 Hartree-Fock
 using 4 threads for integral computing
 -------------------------------------------------------
 OpenMP Integral computing Module
 Release: version 1.0, May 2013, Q-Chem Inc. Pittsburgh
 -------------------------------------------------------
 A restricted SCF calculation will be
 performed using DIIS
 SCF converges when DIIS error is below 1.0e-08
 ---------------------------------------
  Cycle       Energy         DIIS error
 ---------------------------------------
    1     -91.6436509673      2.65e-03
    2     -91.6438677322      9.77e-04
    3     -91.6438968041      5.67e-04
    4     -91.6439035901      6.96e-05
    5     -91.6439038202      1.98e-05
    6     -91.6439038476      5.83e-06
    7     -91.6439038504      1.40e-06
    8     -91.6439038506      3.06e-07
    9     -91.6439038506      2.00e-08
   10     -91.6439038506      1.36e-09  Convergence criterion met
 ---------------------------------------
 SCF time:   CPU 3.32s  wall 1.00s
 SCF   energy in the final basis set =      -91.6439038506
 Total energy in the final basis set =      -91.6439038506

 --------------------------------------------------------------
             Orbital Energies (a.u.) and Symmetries
 --------------------------------------------------------------

 Alpha MOs, Restricted
 -- Occupied --
-15.374 -11.024  -1.184  -0.794  -0.448  -0.447  -0.399
  1 A'    2 A'    3 A'    4 A'    5 A'    1 A"    6 A'
 -- Virtual --
  0.359   0.363   0.554   1.242
  7 A'    2 A"    8 A'    9 A'

 Beta MOs, Restricted
 -- Occupied --
-15.374 -11.024  -1.184  -0.794  -0.448  -0.447  -0.399
  1 A'    2 A'    3 A'    4 A'    5 A'    1 A"    6 A'
 -- Virtual --
  0.359   0.363   0.554   1.242
  7 A'    2 A"    8 A'    9 A'
 --------------------------------------------------------------

          Ground-State Mulliken Net Atomic Charges

     Atom                 Charge (a.u.)
  ----------------------------------------
      1 C                     0.135983
      2 H                     0.264912
      3 N                    -0.400895
  ----------------------------------------
  Sum of atomic charges =     0.000000

 -----------------------------------------------------------------
                    Cartesian Multipole Moments
 -----------------------------------------------------------------
    Charge (ESU x 10^10)
                 0.0000
    Dipole Moment (Debye)
         X      -2.1200      Y       1.1729      Z      -0.0000
       Tot       2.4229
    Quadrupole Moments (Debye-Ang)
        XX      -9.8079     XY      -0.4540     YY     -10.0124
        XZ      -0.0000     YZ       0.0000     ZZ     -10.3251
    Octopole Moments (Debye-Ang^2)
       XXX      -6.8189    XXY       3.5635    XYY      -1.6675
       YYY       1.7082    XXZ      -0.0000    XYZ       0.0000
       YYZ      -0.0000    XZZ      -0.0726    YZZ       0.3097
       ZZZ      -0.0000
    Hexadecapole Moments (Debye-Ang^3)
      XXXX     -30.0818   XXXY       4.3142   XXYY      -6.7128
      XYYY       5.1598   YYYY     -12.1171   XXXZ      -0.0000
      XXYZ       0.0000   XYYZ      -0.0000   YYYZ       0.0000
      XXZZ      -6.5829   XYZZ       1.8529   YYZZ      -3.2720
      XZZZ       0.0000   YZZZ      -0.0000   ZZZZ      -7.2938
 -----------------------------------------------------------------
 Calculating analytic gradient of the SCF energy
 Gradient of SCF Energy
            1           2           3
    1   0.0039488   0.0108184  -0.0147672
    2   0.0016886  -0.0021438   0.0004552
    3  -0.0000000   0.0000000   0.0000000
 Max gradient component =       1.477E-02
 RMS gradient           =       6.310E-03
 Gradient time:  CPU 0.78 s  wall 0.20 s
rPathMan2.  file_steps = 952
 IRC --- Status = 2.  Assess steepest descent step
 IRC --- Previous SD length =   0.048232
 IRC --- Point 1 E =      -91.643789 |G| =   0.005313 G.D1 =  -0.005313
 IRC --- Point 2 E =      -91.643904 |G| =   0.011739 G.D1 =   0.000489
 IRC --- Angle(G1/G2) =   92.39 Deg.  Curvature =   0.1203
 IRC --- Minimum along SD direction =   0.044165
 IRC --- Corrector step required
 IRC --- equal length displacement: B_eq =   0.069618
 IRC --- chosen bisector length  : B_len =   0.034105
 ----------------------------------------------------------------
             Standard Nuclear Orientation (Angstroms)
    I     Atom           X                Y                Z
 ----------------------------------------------------------------
    1      C       0.6389755345    -0.3021698319     0.0000000000
    2      H      -1.3172021979     0.6705925088     0.0000000000
    3      N      -0.4402445723     0.1500071319     0.0000000000
 ----------------------------------------------------------------
 Molecular Point Group                 Cs    NOp =  2
 Largest Abelian Subgroup              Cs    NOp =  2
 Nuclear Repulsion Energy =    24.0796776208 hartrees
 There are        7 alpha and        7 beta electrons

                       Distance Matrix (Angstroms)
             C (  1)   H (  2)
   H (  2)  2.184696
   N (  3)  1.170120  1.019835

 Applying Cartesian multipole field
    Component          Value
    ---------          -----
     (2,0,0)        1.00000E-10
     (0,2,0)        2.00000E-10
     (0,0,2)       -3.00000E-10
 Nucleus-field energy     =     0.0000000028 hartrees
 Requested basis set is STO-3G
 There are 5 shells and 11 basis functions
 A cutoff of  1.0D-14 yielded     15 shell pairs
 There are        78 function pairs
 Smallest overlap matrix eigenvalue = 1.66E-01
 Guess MOs from SCF MO coefficient file

 -----------------------------------------------------------------------
  General SCF calculation program by
  Eric Jon Sundstrom, Paul Horn, Yuezhi Mao, Dmitri Zuev, Alec White,
  David Stuck, Shaama M.S., Shane Yost, Joonho Lee, David Small,
  Daniel Levine, Susi Lehtola, Hugh Burton, Evgeny Epifanovsky
 -----------------------------------------------------------------------
 Hartree-Fock
 using 4 threads for integral computing
 -------------------------------------------------------
 OpenMP Integral computing Module
 Release: version 1.0, May 2013, Q-Chem Inc. Pittsburgh
 -------------------------------------------------------
 A restricted SCF calculation will be
 performed using DIIS
 SCF converges when DIIS error is below 1.0e-08
 ---------------------------------------
  Cycle       Energy         DIIS error
 ---------------------------------------
    1     -91.6438372723      1.05e-03
    2     -91.6438513763      4.60e-04
    3     -91.6438546165      1.76e-04
    4     -91.6438552990      2.83e-05
    5     -91.6438553301      5.06e-06
    6     -91.6438553314      1.30e-06
    7     -91.6438553316      3.02e-07
    8     -91.6438553316      9.29e-08
    9     -91.6438553316      1.88e-08
   10     -91.6438553316      2.17e-09  Convergence criterion met
 ---------------------------------------
 SCF time:   CPU 3.31s  wall 1.00s
 SCF   energy in the final basis set =      -91.6438553316
 Total energy in the final basis set =      -91.6438553316

 --------------------------------------------------------------
             Orbital Energies (a.u.) and Symmetries
 --------------------------------------------------------------

 Alpha MOs, Restricted
 -- Occupied --
-15.375 -11.023  -1.183  -0.787  -0.448  -0.447  -0.398
  1 A'    2 A'    3 A'    4 A'    5 A'    1 A"    6 A'
 -- Virtual --
  0.360   0.365   0.538   1.241
  7 A'    2 A"    8 A'    9 A'

 Beta MOs, Restricted
 -- Occupied --
-15.375 -11.023  -1.183  -0.787  -0.448  -0.447  -0.398
  1 A'    2 A'    3 A'    4 A'    5 A'    1 A"    6 A'
 -- Virtual --
  0.360   0.365   0.538   1.241
  7 A'    2 A"    8 A'    9 A'
 --------------------------------------------------------------

          Ground-State Mulliken Net Atomic Charges

     Atom                 Charge (a.u.)
  ----------------------------------------
      1 C                     0.132865
      2 H                     0.263702
      3 N                    -0.396567
  ----------------------------------------
  Sum of atomic charges =    -0.000000

 -----------------------------------------------------------------
                    Cartesian Multipole Moments
 -----------------------------------------------------------------
    Charge (ESU x 10^10)
                 0.0000
    Dipole Moment (Debye)
         X      -2.1513      Y       1.2042      Z       0.0000
       Tot       2.4654
    Quadrupole Moments (Debye-Ang)
        XX      -9.7707     XY      -0.4955     YY      -9.9864
        XZ      -0.0000     YZ       0.0000     ZZ     -10.3306
    Octopole Moments (Debye-Ang^2)
       XXX      -6.9059    XXY       3.6345    XYY      -1.7168
       YYY       1.7342    XXZ       0.0000    XYZ       0.0000
       YYZ      -0.0000    XZZ      -0.0719    YZZ       0.3078
       ZZZ      -0.0000
    Hexadecapole Moments (Debye-Ang^3)
      XXXX     -29.9881   XXXY       4.2122   XXYY      -6.6505
      XYYY       5.1351   YYYY     -12.1311   XXXZ       0.0000
      XXYZ       0.0000   XYYZ      -0.0000   YYYZ       0.0000
      XXZZ      -6.5993   XYZZ       1.8625   YYZZ      -3.2808
      XZZZ       0.0000   YZZZ       0.0000   ZZZZ      -7.3003
 -----------------------------------------------------------------
 Calculating analytic gradient of the SCF energy
 Gradient of SCF Energy
            1           2           3
    1  -0.0012679  -0.0063824   0.0076503
    2   0.0040465   0.0081149  -0.0121614
    3   0.0000000  -0.0000000   0.0000000
 Max gradient component =       1.216E-02
 RMS gradient           =       6.064E-03
 Gradient time:  CPU 0.76 s  wall 0.19 s
rPathMan2.  file_steps = 952
 IRC --- Status = 3.  Assess initial corrector step
 IRC --- bisector search: b =  0.000000 E =      -91.643904 G.B =  -0.008472
 IRC --- bisector search: b =  0.034105 E =      -91.643855 G.B =   0.011045
 IRC --- performed gradient/energy interpolation
 IRC --- bisector search:  estimate b(min) =   1.460093325301861E-002
 ----------------------------------------------------------------
             Standard Nuclear Orientation (Angstroms)
    I     Atom           X                Y                Z
 ----------------------------------------------------------------
    1      C       0.6390663690    -0.3024852750     0.0000000000
    2      H      -1.3113191592     0.6630356710     0.0000000000
    3      N      -0.4407458278     0.1508213337     0.0000000000
 ----------------------------------------------------------------
 Molecular Point Group                 Cs    NOp =  2
 Largest Abelian Subgroup              Cs    NOp =  2
 Nuclear Repulsion Energy =    24.1044294280 hartrees
 There are        7 alpha and        7 beta electrons

                       Distance Matrix (Angstroms)
             C (  1)   H (  2)
   H (  2)  2.176289
   N (  3)  1.171103  1.010080

 Applying Cartesian multipole field
    Component          Value
    ---------          -----
     (2,0,0)        1.00000E-10
     (0,2,0)        2.00000E-10
     (0,0,2)       -3.00000E-10
 Nucleus-field energy     =     0.0000000028 hartrees
 Requested basis set is STO-3G
 There are 5 shells and 11 basis functions
 A cutoff of  1.0D-14 yielded     15 shell pairs
 There are        78 function pairs
 Smallest overlap matrix eigenvalue = 1.66E-01
 Guess MOs from SCF MO coefficient file

 -----------------------------------------------------------------------
  General SCF calculation program by
  Eric Jon Sundstrom, Paul Horn, Yuezhi Mao, Dmitri Zuev, Alec White,
  David Stuck, Shaama M.S., Shane Yost, Joonho Lee, David Small,
  Daniel Levine, Susi Lehtola, Hugh Burton, Evgeny Epifanovsky
 -----------------------------------------------------------------------
 Hartree-Fock
 using 4 threads for integral computing
 -------------------------------------------------------
 OpenMP Integral computing Module
 Release: version 1.0, May 2013, Q-Chem Inc. Pittsburgh
 -------------------------------------------------------
 A restricted SCF calculation will be
 performed using DIIS
 SCF converges when DIIS error is below 1.0e-08
 ---------------------------------------
  Cycle       Energy         DIIS error
 ---------------------------------------
    1     -91.6439589214      5.93e-04
    2     -91.6439634537      2.60e-04
    3     -91.6439644893      9.96e-05
    4     -91.6439647073      1.59e-05
    5     -91.6439647169      2.85e-06
    6     -91.6439647174      7.37e-07
    7     -91.6439647174      1.72e-07
    8     -91.6439647174      5.24e-08
    9     -91.6439647174      1.08e-08
   10     -91.6439647174      1.25e-09  Convergence criterion met
 ---------------------------------------
 SCF time:   CPU 3.33s  wall 1.00s
 SCF   energy in the final basis set =      -91.6439647174
 Total energy in the final basis set =      -91.6439647174

 --------------------------------------------------------------
             Orbital Energies (a.u.) and Symmetries
 --------------------------------------------------------------

 Alpha MOs, Restricted
 -- Occupied --
-15.374 -11.024  -1.183  -0.791  -0.448  -0.447  -0.398
  1 A'    2 A'    3 A'    4 A'    5 A'    1 A"    6 A'
 -- Virtual --
  0.360   0.364   0.547   1.242
  7 A'    2 A"    8 A'    9 A'

 Beta MOs, Restricted
 -- Occupied --
-15.374 -11.024  -1.183  -0.791  -0.448  -0.447  -0.398
  1 A'    2 A'    3 A'    4 A'    5 A'    1 A"    6 A'
 -- Virtual --
  0.360   0.364   0.547   1.242
  7 A'    2 A"    8 A'    9 A'
 --------------------------------------------------------------

          Ground-State Mulliken Net Atomic Charges

     Atom                 Charge (a.u.)
  ----------------------------------------
      1 C                     0.134635
      2 H                     0.264371
      3 N                    -0.399006
  ----------------------------------------
  Sum of atomic charges =     0.000000

 -----------------------------------------------------------------
                    Cartesian Multipole Moments
 -----------------------------------------------------------------
    Charge (ESU x 10^10)
                 0.0000
    Dipole Moment (Debye)
         X      -2.1334      Y       1.1863      Z       0.0000
       Tot       2.4411
    Quadrupole Moments (Debye-Ang)
        XX      -9.7921     XY      -0.4717     YY     -10.0013
        XZ       0.0000     YZ      -0.0000     ZZ     -10.3274
    Octopole Moments (Debye-Ang^2)
       XXX      -6.8559    XXY       3.5937    XYY      -1.6884
       YYY       1.7192    XXZ      -0.0000    XYZ      -0.0000
       YYZ      -0.0000    XZZ      -0.0723    YZZ       0.3089
       ZZZ      -0.0000
    Hexadecapole Moments (Debye-Ang^3)
      XXXX     -30.0423   XXXY       4.2710   XXYY      -6.6865
      XYYY       5.1495   YYYY     -12.1232   XXXZ       0.0000
      XXYZ       0.0000   XYYZ       0.0000   YYYZ      -0.0000
      XXZZ      -6.5899   XYZZ       1.8570   YYZZ      -3.2757
      XZZZ       0.0000   YZZZ      -0.0000   ZZZZ      -7.2966
 -----------------------------------------------------------------
 Calculating analytic gradient of the SCF energy
 Gradient of SCF Energy
            1           2           3
    1   0.0017225   0.0032436  -0.0049661
    2   0.0026979   0.0023349  -0.0050328
    3  -0.0000000   0.0000000   0.0000000
 Max gradient component =       5.033E-03
 RMS gradient           =       2.910E-03
 Gradient time:  CPU 0.77 s  wall 0.19 s
rPathMan2.  file_steps = 952
 IRC --- Status = 4.  Checking bisector search.
 IRC --- Bisector search finished successfully.
 ------------------------------------------------------------------------
 Reaction path following.  The coordinates are mass-weighted cartesian
 Step  30 E=     -91.643965 |G|=  0.008730 S_lin= 3.8285 S_tot= 4.2435
 ------------------------------------------------------------------------
  IRC -- convergence criterion reached.
 ----------------------------------------------------------------
             Standard Nuclear Orientation (Angstroms)
    I     Atom           X                Y                Z
 ----------------------------------------------------------------
    1      C       0.6265491640    -0.1368293747     0.0000000000
    2      H       0.3719375049     1.0382376298    -0.0000000000
    3      N      -0.5901760698    -0.0310373402     0.0000000000
 ----------------------------------------------------------------
 Molecular Point Group                 Cs    NOp =  2
 Largest Abelian Subgroup              Cs    NOp =  2
 Nuclear Repulsion Energy =    23.4139369529 hartrees
 There are        7 alpha and        7 beta electrons
 Here is where we should summarize the reaction path
Archival summary:
1\1\Aeria.local\JobtypUnspecified\HF\STO-3G\111\MonMar2919:11:352021MonMar2919:11:352021\0\\#,JobtypUnspecified,HF,STO-3G,\\0,1\C\H,1,1.20234\N,1,1.22132,2,72.805\\HF=-91.6439647\\@

 Total job time:  184.84s(wall), 726.69s(cpu)
 Mon Mar 29 19:11:35 2021

        *************************************************************
        *                                                           *
        *  Thank you very much for using Q-Chem.  Have a nice day.  *
        *                                                           *
        *************************************************************

